COMMENT
1924 atoms
1 atom types
-4.000001 120.000001 xlo xhi
-0.000001 96.000001 ylo yhi
-0.000001 272.483003 zlo zhi

Atoms

1 1 1 36.4729 0.000571166 14.4943 6.03928 8 0 0 8 0 0
2 1 1 31.5375 0.000493877 13.478 5.61583 16.3333 0 0 16.3333 0 0
3 1 1 31.5374 0.000493875 13.478 5.61581 24.6667 0 0 24.6667 0 0
4 1 1 31.5373 0.000493873 13.4779 5.6158 33 0 0 33 0 0
5 1 1 31.5375 0.000493877 13.478 5.61583 41.3333 0 0 41.3333 0 0
6 1 1 31.5374 0.000493875 13.478 5.61581 49.6667 0 0 49.6667 0 0
7 1 1 21.0248 0.000329249 11.0047 4.58528 58 0 0 58 0 0
8 1 1 54.7092 0.000856746 17.7518 7.39657 8 0 7.56897 8 0 7.56897
9 1 1 63.0747 0.00098775 19.0607 7.94196 16.3333 0 7.56897 16.3333 0 7.56897
10 1 1 63.0747 0.00098775 19.0607 7.94196 24.6667 0 7.56897 24.6667 0 7.56897
11 1 1 63.0743 0.000987744 19.0606 7.94194 33 0 7.56897 33 0 7.56897
12 1 1 63.0747 0.00098775 19.0607 7.94196 41.3333 0 7.56897 41.3333 0 7.56897
13 1 1 63.0747 0.00098775 19.0607 7.94196 49.6667 0 7.56897 49.6667 0 7.56897
14 1 1 63.0744 0.000987745 19.0607 7.94194 58 0 7.56897 58 0 7.56897
15 1 1 54.7094 0.00085675 17.7518 7.39658 8 0 15.1379 8 0 15.1379
16 1 1 63.0748 0.000987752 19.0607 7.94197 16.3333 0 15.1379 16.3333 0 15.1379
17 1 1 63.0748 0.000987752 19.0607 7.94197 24.6667 0 15.1379 24.6667 0 15.1379
18 1 1 63.0745 0.000987746 19.0607 7.94194 33 0 15.1379 33 0 15.1379
19 1 1 63.0748 0.000987752 19.0607 7.94197 41.3333 0 15.1379 41.3333 0 15.1379
20 1 1 63.0748 0.000987752 19.0607 7.94197 49.6667 0 15.1379 49.6667 0 15.1379
21 1 1 63.0744 0.000987744 19.0606 7.94194 58 0 15.1379 58 0 15.1379
22 1 1 54.7096 0.000856753 17.7518 7.39659 8 0 22.7069 8 0 22.7069
23 1 1 63.0751 0.000987756 19.0608 7.94199 16.3333 0 22.7069 16.3333 0 22.7069
24 1 1 63.0751 0.000987756 19.0608 7.94199 24.6667 0 22.7069 24.6667 0 22.7069
25 1 1 63.0748 0.000987751 19.0607 7.94196 33 0 22.7069 33 0 22.7069
26 1 1 63.0751 0.000987756 19.0608 7.94198 41.3333 0 22.7069 41.3333 0 22.7069
27 1 1 63.0751 0.000987756 19.0608 7.94198 49.6667 0 22.7069 49.6667 0 22.7069
28 1 1 63.0747 0.000987751 19.0607 7.94196 58 0 22.7069 58 0 22.7069
29 1 1 54.7091 0.000856745 17.7517 7.39656 8 0 30.2759 8 0 30.2759
30 1 1 63.0747 0.00098775 19.0607 7.94196 16.3333 0 30.2759 16.3333 0 30.2759
31 1 1 63.0747 0.00098775 19.0607 7.94196 24.6667 0 30.2759 24.6667 0 30.2759
32 1 1 63.0743 0.000987744 19.0606 7.94194 33 0 30.2759 33 0 30.2759
33 1 1 63.0747 0.00098775 19.0607 7.94196 41.3333 0 30.2759 41.3333 0 30.2759
34 1 1 63.0747 0.00098775 19.0607 7.94196 49.6667 0 30.2759 49.6667 0 30.2759
35 1 1 63.0745 0.000987746 19.0607 7.94194 58 0 30.2759 58 0 30.2759
36 1 1 54.7094 0.000856749 17.7518 7.39658 8 0 37.8448 8 0 37.8448
37 1 1 63.0747 0.00098775 19.0607 7.94196 16.3333 0 37.8448 16.3333 0 37.8448
38 1 1 63.0747 0.00098775 19.0607 7.94196 24.6667 0 37.8448 24.6667 0 37.8448
39 1 1 63.0743 0.000987744 19.0606 7.94194 33 0 37.8448 33 0 37.8448
40 1 1 63.0747 0.00098775 19.0607 7.94196 41.3333 0 37.8448 41.3333 0 37.8448
41 1 1 63.0747 0.00098775 19.0607 7.94196 49.6667 0 37.8448 49.6667 0 37.8448
42 1 1 63.0742 0.000987742 19.0606 7.94193 58 0 37.8448 58 0 37.8448
43 1 1 54.7096 0.000856753 17.7518 7.39659 8 0 45.4138 8 0 45.4138
44 1 1 63.0751 0.000987757 19.0608 7.94199 16.3333 0 45.4138 16.3333 0 45.4138
45 1 1 63.0751 0.000987757 19.0608 7.94199 24.6667 0 45.4138 24.6667 0 45.4138
46 1 1 63.0748 0.000987751 19.0607 7.94196 33 0 45.4138 33 0 45.4138
47 1 1 63.0751 0.000987756 19.0608 7.94198 41.3333 0 45.4138 41.3333 0 45.4138
48 1 1 63.0751 0.000987756 19.0608 7.94198 49.6667 0 45.4138 49.6667 0 45.4138
49 1 1 63.0748 0.000987751 19.0607 7.94196 58 0 45.4138 58 0 45.4138
50 1 1 53.9416 0.000844726 17.6268 7.3445 8 0 52.9828 8 0 52.9828
51 1 1 63.0747 0.00098775 19.0607 7.94196 16.3333 0 52.9828 16.3333 0 52.9828
52 1 1 63.0747 0.00098775 19.0607 7.94196 24.6667 0 52.9828 24.6667 0 52.9828
53 1 1 63.0743 0.000987744 19.0606 7.94194 33 0 52.9828 33 0 52.9828
54 1 1 63.0747 0.00098775 19.0607 7.94196 41.3333 0 52.9828 41.3333 0 52.9828
55 1 1 63.0747 0.00098775 19.0607 7.94196 49.6667 0 52.9828 49.6667 0 52.9828
56 1 1 63.0745 0.000987746 19.0607 7.94194 58 0 52.9828 58 0 52.9828
57 1 1 48.0678 0.000752742 16.6394 6.9331 8 2.8282 60.5517 8 2.8282 60.5517
58 1 1 64.927 0.00101676 19.3386 8.05773 16.3333 0 60.5517 16.3333 0 60.5517
59 1 1 63.0747 0.00098775 19.0607 7.94196 24.6667 0 60.5517 24.6667 0 60.5517
60 1 1 63.0743 0.000987744 19.0606 7.94193 33 0 60.5517 33 0 60.5517
61 1 1 63.0747 0.00098775 19.0607 7.94196 41.3333 0 60.5517 41.3333 0 60.5517
62 1 1 63.0747 0.00098775 19.0607 7.94196 49.6667 0 60.5517 49.6667 0 60.5517
63 1 1 63.0742 0.000987742 19.0606 7.94193 58 0 60.5517 58 0 60.5517
64 1 1 51.4662 0.000805961 17.2176 7.174 8 2.8282 68.1207 8 2.8282 68.1207
65 1 1 64.8419 0.00101542 19.3259 8.05245 16.3333 0 68.1207 16.3333 0 68.1207
66 1 1 63.0751 0.000987756 19.0608 7.94198 24.6667 0 68.1207 24.6667 0 68.1207
67 1 1 63.0747 0.00098775 19.0607 7.94196 33 0 68.1207 33 0 68.1207
68 1 1 63.0751 0.000987756 19.0608 7.94198 41.3333 0 68.1207 41.3333 0 68.1207
69 1 1 63.0751 0.000987756 19.0608 7.94198 49.6667 0 68.1207 49.6667 0 68.1207
70 1 1 63.0747 0.00098775 19.0607 7.94196 58 0 68.1207 58 0 68.1207
71 1 1 55.8663 0.000874867 17.9385 7.47438 8 0 75.6897 8 0 75.6897
72 1 1 64.3735 0.00100809 19.2559 8.02331 16.3333 0 75.6897 16.3333 0 75.6897
73 1 1 63.0747 0.00098775 19.0607 7.94196 24.6667 0 75.6897 24.6667 0 75.6897
74 1 1 63.0743 0.000987744 19.0606 7.94194 33 0 75.6897 33 0 75.6897
75 1 1 63.0747 0.00098775 19.0607 7.94196 41.3333 0 75.6897 41.3333 0 75.6897
76 1 1 63.0747 0.00098775 19.0607 7.94196 49.6667 0 75.6897 49.6667 0 75.6897
77 1 1 63.0745 0.000987746 19.0607 7.94194 58 0 75.6897 58 0 75.6897
78 1 1 54.7094 0.000856749 17.7518 7.39658 8 0 83.2586 8 0 83.2586
79 1 1 63.0747 0.00098775 19.0607 7.94196 16.3333 0 83.2586 16.3333 0 83.2586
80 1 1 63.0747 0.00098775 19.0607 7.94196 24.6667 0 83.2586 24.6667 0 83.2586
81 1 1 63.0743 0.000987744 19.0606 7.94194 33 0 83.2586 33 0 83.2586
82 1 1 63.0747 0.00098775 19.0607 7.94196 41.3333 0 83.2586 41.3333 0 83.2586
83 1 1 63.0747 0.00098775 19.0607 7.94196 49.6667 0 83.2586 49.6667 0 83.2586
84 1 1 63.0742 0.000987742 19.0606 7.94193 58 0 83.2586 58 0 83.2586
85 1 1 54.7096 0.000856753 17.7518 7.39659 8 0 90.8276 8 0 90.8276
86 1 1 63.0751 0.000987757 19.0608 7.94199 16.3333 0 90.8276 16.3333 0 90.8276
87 1 1 63.0751 0.000987757 19.0608 7.94199 24.6667 0 90.8276 24.6667 0 90.8276
88 1 1 63.0748 0.000987751 19.0607 7.94196 33 0 90.8276 33 0 90.8276
89 1 1 63.0751 0.000987756 19.0608 7.94198 41.3333 0 90.8276 41.3333 0 90.8276
90 1 1 63.0751 0.000987756 19.0608 7.94198 49.6667 0 90.8276 49.6667 0 90.8276
91 1 1 63.0748 0.000987751 19.0607 7.94196 58 0 90.8276 58 0 90.8276
92 1 1 54.7116 0.000856783 17.7521 7.39673 8 0 98.3966 8 0 98.3966
93 1 1 63.0768 0.000987783 19.061 7.94209 16.3333 0 98.3966 16.3333 0 98.3966
94 1 1 63.0768 0.000987783 19.061 7.94209 24.6667 0 98.3966 24.6667 0 98.3966
95 1 1 63.0764 0.000987777 19.061 7.94207 33 0 98.3966 33 0 98.3966
96 1 1 63.0768 0.000987783 19.061 7.94209 41.3333 0 98.3966 41.3333 0 98.3966
97 1 1 63.0768 0.000987783 19.061 7.94209 49.6667 0 98.3966 49.6667 0 98.3966
98 1 1 63.0759 0.000987768 19.0609 7.94203 58 0 98.3966 58 0 98.3966
99 1 1 54.7057 0.000856692 17.7512 7.39633 8 0 105.966 8 0 105.966
100 1 1 63.0726 0.000987717 19.0604 7.94183 16.3333 0 105.966 16.3333 0 105.966
101 1 1 63.0726 0.000987717 19.0604 7.94183 24.6667 0 105.966 24.6667 0 105.966
102 1 1 63.0722 0.000987711 19.0603 7.9418 33 0 105.966 33 0 105.966
103 1 1 63.0726 0.000987717 19.0604 7.94183 41.3333 0 105.966 41.3333 0 105.966
104 1 1 63.0726 0.000987717 19.0604 7.94183 49.6667 0 105.966 49.6667 0 105.966
105 1 1 63.0742 0.000987742 19.0606 7.94193 58 0 105.966 58 0 105.966
106 1 1 54.7072 0.000856715 17.7514 7.39643 8 0 113.534 8 0 113.534
107 1 1 63.0709 0.000987691 19.0601 7.94172 16.3333 0 113.534 16.3333 0 113.534
108 1 1 63.0709 0.000987691 19.0601 7.94172 24.6667 0 113.534 24.6667 0 113.534
109 1 1 63.0706 0.000987685 19.0601 7.9417 33 0 113.534 33 0 113.534
110 1 1 63.0709 0.000987691 19.0601 7.94172 41.3333 0 113.534 41.3333 0 113.534
111 1 1 63.0709 0.000987691 19.0601 7.94172 49.6667 0 113.534 49.6667 0 113.534
112 1 1 63.0692 0.000987663 19.0599 7.94161 58 0 113.534 58 0 113.534
113 1 1 54.7096 0.000856753 17.7518 7.39659 8 0 121.103 8 0 121.103
114 1 1 63.0751 0.000987756 19.0608 7.94199 16.3333 0 121.103 16.3333 0 121.103
115 1 1 63.0751 0.000987756 19.0608 7.94199 24.6667 0 121.103 24.6667 0 121.103
116 1 1 63.0748 0.000987751 19.0607 7.94196 33 0 121.103 33 0 121.103
117 1 1 63.0751 0.000987756 19.0608 7.94198 41.3333 0 121.103 41.3333 0 121.103
118 1 1 63.0751 0.000987756 19.0608 7.94198 49.6667 0 121.103 49.6667 0 121.103
119 1 1 63.0747 0.000987751 19.0607 7.94196 58 0 121.103 58 0 121.103
120 1 1 54.7096 0.000856753 17.7518 7.39659 8 0 128.672 8 0 128.672
121 1 1 63.0751 0.000987756 19.0608 7.94199 16.3333 0 128.672 16.3333 0 128.672
122 1 1 63.0751 0.000987756 19.0608 7.94199 24.6667 0 128.672 24.6667 0 128.672
123 1 1 63.0748 0.000987751 19.0607 7.94196 33 0 128.672 33 0 128.672
124 1 1 63.0751 0.000987756 19.0608 7.94198 41.3333 0 128.672 41.3333 0 128.672
125 1 1 63.0751 0.000987756 19.0608 7.94198 49.6667 0 128.672 49.6667 0 128.672
126 1 1 63.0747 0.000987751 19.0607 7.94196 58 0 128.672 58 0 128.672
127 1 1 53.9421 0.000844733 17.6269 7.34453 8 0 136.241 8 0 136.241
128 1 1 63.0751 0.000987757 19.0608 7.94199 16.3333 0 136.241 16.3333 0 136.241
129 1 1 63.0751 0.000987757 19.0608 7.94199 24.6667 0 136.241 24.6667 0 136.241
130 1 1 63.0748 0.000987751 19.0607 7.94196 33 0 136.241 33 0 136.241
131 1 1 63.0751 0.000987756 19.0608 7.94198 41.3333 0 136.241 41.3333 0 136.241
132 1 1 63.0751 0.000987756 19.0608 7.94198 49.6667 0 136.241 49.6667 0 136.241
133 1 1 63.0748 0.000987751 19.0607 7.94196 58 0 136.241 58 0 136.241
134 1 1 48.0681 0.000752746 16.6395 6.93311 8 2.8282 143.81 8 2.8282 143.81
135 1 1 64.9274 0.00101676 19.3386 8.05776 16.3333 0 143.81 16.3333 0 143.81
136 1 1 63.0751 0.000987757 19.0608 7.94199 24.6667 0 143.81 24.6667 0 143.81
137 1 1 63.0748 0.000987751 19.0607 7.94196 33 0 143.81 33 0 143.81
138 1 1 63.0751 0.000987756 19.0608 7.94198 41.3333 0 143.81 41.3333 0 143.81
139 1 1 63.0751 0.000987756 19.0608 7.94198 49.6667 0 143.81 49.6667 0 143.81
140 1 1 63.0748 0.000987751 19.0607 7.94196 58 0 143.81 58 0 143.81
141 1 1 51.4663 0.000805961 17.2176 7.174 8 2.8282 151.379 8 2.8282 151.379
142 1 1 64.8419 0.00101542 19.3259 8.05245 16.3333 0 151.379 16.3333 0 151.379
143 1 1 63.0751 0.000987756 19.0608 7.94199 24.6667 0 151.379 24.6667 0 151.379
144 1 1 63.0748 0.000987751 19.0607 7.94196 33 0 151.379 33 0 151.379
145 1 1 63.0751 0.000987756 19.0608 7.94198 41.3333 0 151.379 41.3333 0 151.379
146 1 1 63.0751 0.000987756 19.0608 7.94198 49.6667 0 151.379 49.6667 0 151.379
147 1 1 63.0747 0.000987751 19.0607 7.94196 58 0 151.379 58 0 151.379
148 1 1 55.8668 0.000874874 17.9386 7.47441 8 0 158.948 8 0 158.948
149 1 1 64.374 0.0010081 19.256 8.02334 16.3333 0 158.948 16.3333 0 158.948
150 1 1 63.0751 0.000987756 19.0608 7.94199 24.6667 0 158.948 24.6667 0 158.948
151 1 1 63.0748 0.000987751 19.0607 7.94196 33 0 158.948 33 0 158.948
152 1 1 63.0751 0.000987756 19.0608 7.94198 41.3333 0 158.948 41.3333 0 158.948
153 1 1 63.0751 0.000987756 19.0608 7.94198 49.6667 0 158.948 49.6667 0 158.948
154 1 1 63.0747 0.000987751 19.0607 7.94196 58 0 158.948 58 0 158.948
155 1 1 54.7096 0.000856753 17.7518 7.39659 8 0 166.517 8 0 166.517
156 1 1 63.0751 0.000987757 19.0608 7.94199 16.3333 0 166.517 16.3333 0 166.517
157 1 1 63.0751 0.000987757 19.0608 7.94199 24.6667 0 166.517 24.6667 0 166.517
158 1 1 63.0748 0.000987751 19.0607 7.94196 33 0 166.517 33 0 166.517
159 1 1 63.0751 0.000987756 19.0608 7.94198 41.3333 0 166.517 41.3333 0 166.517
160 1 1 63.0751 0.000987756 19.0608 7.94198 49.6667 0 166.517 49.6667 0 166.517
161 1 1 63.0748 0.000987751 19.0607 7.94196 58 0 166.517 58 0 166.517
162 1 1 54.7096 0.000856753 17.7518 7.39659 8 0 174.086 8 0 174.086
163 1 1 63.0751 0.000987757 19.0608 7.94199 16.3333 0 174.086 16.3333 0 174.086
164 1 1 63.0751 0.000987757 19.0608 7.94199 24.6667 0 174.086 24.6667 0 174.086
165 1 1 63.0748 0.000987751 19.0607 7.94196 33 0 174.086 33 0 174.086
166 1 1 63.0751 0.000987756 19.0608 7.94198 41.3333 0 174.086 41.3333 0 174.086
167 1 1 63.0751 0.000987756 19.0608 7.94198 49.6667 0 174.086 49.6667 0 174.086
168 1 1 63.0748 0.000987751 19.0607 7.94196 58 0 174.086 58 0 174.086
169 1 1 54.7096 0.000856753 17.7518 7.39659 8 0 181.655 8 0 181.655
170 1 1 63.0751 0.000987756 19.0608 7.94199 16.3333 0 181.655 16.3333 0 181.655
171 1 1 63.0751 0.000987756 19.0608 7.94199 24.6667 0 181.655 24.6667 0 181.655
172 1 1 63.0748 0.000987751 19.0607 7.94196 33 0 181.655 33 0 181.655
173 1 1 63.0751 0.000987756 19.0608 7.94198 41.3333 0 181.655 41.3333 0 181.655
174 1 1 63.0751 0.000987756 19.0608 7.94198 49.6667 0 181.655 49.6667 0 181.655
175 1 1 63.0747 0.000987751 19.0607 7.94196 58 0 181.655 58 0 181.655
176 1 1 54.7096 0.000856753 17.7518 7.39659 8 0 189.224 8 0 189.224
177 1 1 63.0751 0.000987756 19.0608 7.94199 16.3333 0 189.224 16.3333 0 189.224
178 1 1 63.0751 0.000987756 19.0608 7.94199 24.6667 0 189.224 24.6667 0 189.224
179 1 1 63.0748 0.000987751 19.0607 7.94196 33 0 189.224 33 0 189.224
180 1 1 63.0751 0.000987756 19.0608 7.94198 41.3333 0 189.224 41.3333 0 189.224
181 1 1 63.0751 0.000987756 19.0608 7.94198 49.6667 0 189.224 49.6667 0 189.224
182 1 1 63.0747 0.000987751 19.0607 7.94196 58 0 189.224 58 0 189.224
183 1 1 54.7096 0.000856753 17.7518 7.39659 8 0 196.793 8 0 196.793
184 1 1 63.0751 0.000987757 19.0608 7.94199 16.3333 0 196.793 16.3333 0 196.793
185 1 1 63.0751 0.000987757 19.0608 7.94199 24.6667 0 196.793 24.6667 0 196.793
186 1 1 63.0748 0.000987751 19.0607 7.94196 33 0 196.793 33 0 196.793
187 1 1 63.0751 0.000987756 19.0608 7.94198 41.3333 0 196.793 41.3333 0 196.793
188 1 1 63.0751 0.000987756 19.0608 7.94198 49.6667 0 196.793 49.6667 0 196.793
189 1 1 63.0748 0.000987751 19.0607 7.94196 58 0 196.793 58 0 196.793
190 1 1 54.7096 0.000856753 17.7518 7.39659 8 0 204.362 8 0 204.362
191 1 1 63.0751 0.000987757 19.0608 7.94199 16.3333 0 204.362 16.3333 0 204.362
192 1 1 63.0751 0.000987757 19.0608 7.94199 24.6667 0 204.362 24.6667 0 204.362
193 1 1 63.0748 0.000987751 19.0607 7.94196 33 0 204.362 33 0 204.362
194 1 1 63.0751 0.000987756 19.0608 7.94198 41.3333 0 204.362 41.3333 0 204.362
195 1 1 63.0751 0.000987756 19.0608 7.94198 49.6667 0 204.362 49.6667 0 204.362
196 1 1 63.0748 0.000987751 19.0607 7.94196 58 0 204.362 58 0 204.362
197 1 1 54.7096 0.000856753 17.7518 7.39659 8 0 211.931 8 0 211.931
198 1 1 63.0751 0.000987756 19.0608 7.94199 16.3333 0 211.931 16.3333 0 211.931
199 1 1 63.0751 0.000987756 19.0608 7.94199 24.6667 0 211.931 24.6667 0 211.931
200 1 1 63.0748 0.000987751 19.0607 7.94196 33 0 211.931 33 0 211.931
201 1 1 63.0751 0.000987756 19.0608 7.94198 41.3333 0 211.931 41.3333 0 211.931
202 1 1 63.0751 0.000987756 19.0608 7.94198 49.6667 0 211.931 49.6667 0 211.931
203 1 1 63.0747 0.000987751 19.0607 7.94196 58 0 211.931 58 0 211.931
204 1 1 53.9421 0.000844733 17.6269 7.34453 8 0 219.5 8 0 219.5
205 1 1 63.0751 0.000987756 19.0608 7.94199 16.3333 0 219.5 16.3333 0 219.5
206 1 1 63.0751 0.000987756 19.0608 7.94199 24.6667 0 219.5 24.6667 0 219.5
207 1 1 63.0748 0.000987751 19.0607 7.94196 33 0 219.5 33 0 219.5
208 1 1 63.0751 0.000987756 19.0608 7.94198 41.3333 0 219.5 41.3333 0 219.5
209 1 1 63.0751 0.000987756 19.0608 7.94198 49.6667 0 219.5 49.6667 0 219.5
210 1 1 63.0747 0.000987751 19.0607 7.94196 58 0 219.5 58 0 219.5
211 1 1 38.8004 0.000607615 14.9496 6.229 8 2.8282 227.069 8 2.8282 227.069
212 1 1 64.9274 0.00101676 19.3386 8.05776 16.3333 0 227.069 16.3333 0 227.069
213 1 1 63.0751 0.000987756 19.0608 7.94199 24.6667 0 227.069 24.6667 0 227.069
214 1 1 63.0748 0.000987751 19.0607 7.94196 33 0 227.069 33 0 227.069
215 1 1 63.0751 0.000987756 19.0608 7.94198 41.3333 0 227.069 41.3333 0 227.069
216 1 1 63.0751 0.000987756 19.0608 7.94198 49.6667 0 227.069 49.6667 0 227.069
217 1 1 63.0747 0.000987751 19.0607 7.94196 58 0 227.069 58 0 227.069
218 1 1 46.8325 0.000733396 16.4242 6.84342 8 2.8282 234.638 8 2.8282 234.638
219 1 1 64.8419 0.00101542 19.3259 8.05245 16.3333 0 234.638 16.3333 0 234.638
220 1 1 63.0751 0.000987757 19.0608 7.94199 24.6667 0 234.638 24.6667 0 234.638
221 1 1 63.0748 0.000987751 19.0607 7.94196 33 0 234.638 33 0 234.638
222 1 1 63.0751 0.000987756 19.0608 7.94198 41.3333 0 234.638 41.3333 0 234.638
223 1 1 63.0751 0.000987756 19.0608 7.94198 49.6667 0 234.638 49.6667 0 234.638
224 1 1 63.0748 0.000987751 19.0607 7.94196 58 0 234.638 58 0 234.638
225 1 1 55.8668 0.000874874 17.9386 7.47441 8 0 242.207 8 0 242.207
226 1 1 64.374 0.0010081 19.256 8.02334 16.3333 0 242.207 16.3333 0 242.207
227 1 1 63.0751 0.000987757 19.0608 7.94199 24.6667 0 242.207 24.6667 0 242.207
228 1 1 63.0748 0.000987751 19.0607 7.94196 33 0 242.207 33 0 242.207
229 1 1 63.0751 0.000987756 19.0608 7.94198 41.3333 0 242.207 41.3333 0 242.207
230 1 1 63.0751 0.000987756 19.0608 7.94198 49.6667 0 242.207 49.6667 0 242.207
231 1 1 63.0748 0.000987751 19.0607 7.94196 58 0 242.207 58 0 242.207
232 1 1 54.7096 0.000856753 17.7518 7.39659 8 0 249.776 8 0 249.776
233 1 1 63.0751 0.000987756 19.0608 7.94199 16.3333 0 249.776 16.3333 0 249.776
234 1 1 63.0751 0.000987756 19.0608 7.94199 24.6667 0 249.776 24.6667 0 249.776
235 1 1 63.0748 0.000987751 19.0607 7.94196 33 0 249.776 33 0 249.776
236 1 1 63.0751 0.000987756 19.0608 7.94198 41.3333 0 249.776 41.3333 0 249.776
237 1 1 63.0751 0.000987756 19.0608 7.94198 49.6667 0 249.776 49.6667 0 249.776
238 1 1 63.0747 0.000987751 19.0607 7.94196 58 0 249.776 58 0 249.776
239 1 1 54.7096 0.000856753 17.7518 7.39659 8 0 257.345 8 0 257.345
240 1 1 63.0751 0.000987756 19.0608 7.94199 16.3333 0 257.345 16.3333 0 257.345
241 1 1 63.0751 0.000987756 19.0608 7.94199 24.6667 0 257.345 24.6667 0 257.345
242 1 1 63.0748 0.000987751 19.0607 7.94196 33 0 257.345 33 0 257.345
243 1 1 63.0751 0.000987756 19.0608 7.94198 41.3333 0 257.345 41.3333 0 257.345
244 1 1 63.0751 0.000987756 19.0608 7.94198 49.6667 0 257.345 49.6667 0 257.345
245 1 1 63.0747 0.000987751 19.0607 7.94196 58 0 257.345 58 0 257.345
246 1 1 54.7096 0.000856753 17.7518 7.39659 8 0 264.914 8 0 264.914
247 1 1 63.0751 0.000987757 19.0608 7.94199 16.3333 0 264.914 16.3333 0 264.914
248 1 1 63.0751 0.000987757 19.0608 7.94199 24.6667 0 264.914 24.6667 0 264.914
249 1 1 63.0748 0.000987751 19.0607 7.94196 33 0 264.914 33 0 264.914
250 1 1 63.0751 0.000987756 19.0608 7.94198 41.3333 0 264.914 41.3333 0 264.914
251 1 1 63.0751 0.000987756 19.0608 7.94198 49.6667 0 264.914 49.6667 0 264.914
252 1 1 63.0748 0.000987751 19.0607 7.94196 58 0 264.914 58 0 264.914
253 1 1 18.2365 0.000285584 10.249 4.27043 8 0 272.483 8 0 272.483
254 1 1 31.5375 0.000493877 13.478 5.61583 16.3333 0 272.483 16.3333 0 272.483
255 1 1 31.5376 0.000493879 13.478 5.61584 24.6667 0 272.483 24.6667 0 272.483
256 1 1 31.5374 0.000493875 13.478 5.61582 33 0 272.483 33 0 272.483
257 1 1 31.5375 0.000493877 13.478 5.61583 41.3333 0 272.483 41.3333 0 272.483
258 1 1 31.5376 0.000493879 13.478 5.61584 49.6667 0 272.483 49.6667 0 272.483
259 1 1 42.0498 0.0006585 15.563 6.48458 58 0 272.483 58 0 272.483
414 1 1 23.1721 0.000362876 11.553 4.81375 2.34315 2.34315 -9.61e-10 2.34315 2.34315 -9.61e-10
415 1 1 17.816 0.000278999 10.1302 4.2209 4.9e-16 8 -3.282e-09 4.9e-16 8 -3.282e-09
416 1 1 46.3442 0.00072575 16.3384 6.80766 2.34315 2.34315 7.56897 2.34315 2.34315 7.56897
417 1 1 53.4479 0.000836995 17.5459 7.31081 4.9e-16 8 7.56897 4.9e-16 8 7.56897
418 1 1 46.3443 0.000725751 16.3384 6.80766 2.34315 2.34315 15.1379 2.34315 2.34315 15.1379
419 1 1 53.4479 0.000836994 17.5459 7.31081 4.9e-16 8 15.1379 4.9e-16 8 15.1379
420 1 1 46.3445 0.000725755 16.3384 6.80768 2.34315 2.34315 22.7069 2.34315 2.34315 22.7069
421 1 1 53.4482 0.000836999 17.546 7.31083 4.9e-16 8 22.7069 4.9e-16 8 22.7069
422 1 1 46.3442 0.00072575 16.3384 6.80766 2.34315 2.34315 30.2759 2.34315 2.34315 30.2759
423 1 1 53.448 0.000836996 17.546 7.31081 4.9e-16 8 30.2759 4.9e-16 8 30.2759
424 1 1 46.3442 0.00072575 16.3384 6.80766 2.34315 2.34315 37.8448 2.34315 2.34315 37.8448
425 1 1 53.4478 0.000836992 17.5459 7.3108 4.9e-16 8 37.8448 4.9e-16 8 37.8448
426 1 1 46.3445 0.000725755 16.3384 6.80768 2.34315 2.34315 45.4138 2.34315 2.34315 45.4138
427 1 1 53.4482 0.000836999 17.546 7.31083 4.9e-16 8 45.4138 4.9e-16 8 45.4138
428 1 1 44.6606 0.000699386 16.0389 6.68286 2.34315 2.34315 52.9828 2.34315 2.34315 52.9828
429 1 1 55.6421 0.000871355 17.9025 7.45936 4.9e-16 8 52.9828 4.9e-16 8 52.9828
430 1 1 30.0727 0.000470939 13.1613 5.48386 5.17115 5.17135 60.5517 5.17115 5.17135 60.5517
431 1 1 49.6761 0.000777928 16.9155 7.04813 4 8 60.5517 4 8 60.5517
432 1 1 31.2589 0.000489514 13.4183 5.59096 5.17115 5.17135 68.1207 5.17115 5.17135 68.1207
433 1 1 43.6207 0.0006831 15.851 6.60459 4 8 68.1207 4 8 68.1207
434 1 1 45.1746 0.000707434 16.1309 6.72121 2.34315 2.34315 75.6897 2.34315 2.34315 75.6897
435 1 1 53.5383 0.000838409 17.5608 7.31698 4.9e-16 8 75.6897 4.9e-16 8 75.6897
436 1 1 46.3442 0.00072575 16.3384 6.80766 2.34315 2.34315 83.2586 2.34315 2.34315 83.2586
437 1 1 53.4478 0.000836992 17.5459 7.3108 4.9e-16 8 83.2586 4.9e-16 8 83.2586
438 1 1 46.3445 0.000725755 16.3384 6.80768 2.34315 2.34315 90.8276 2.34315 2.34315 90.8276
439 1 1 53.4482 0.000836999 17.546 7.31083 4.9e-16 8 90.8276 4.9e-16 8 90.8276
440 1 1 46.3457 0.000725774 16.3386 6.80777 2.34315 2.34315 98.3966 2.34315 2.34315 98.3966
441 1 1 53.4492 0.000837014 17.5461 7.3109 4.9e-16 8 98.3966 4.9e-16 8 98.3966
442 1 1 46.3426 0.000725726 16.3381 6.80754 2.34315 2.34315 105.966 2.34315 2.34315 105.966
443 1 1 53.4478 0.000836992 17.5459 7.3108 4.9e-16 8 105.966 4.9e-16 8 105.966
444 1 1 46.3414 0.000725706 16.3379 6.80745 2.34315 2.34315 113.534 2.34315 2.34315 113.534
445 1 1 53.4435 0.000836925 17.5452 7.31051 4.9e-16 8 113.534 4.9e-16 8 113.534
446 1 1 46.3445 0.000725755 16.3384 6.80768 2.34315 2.34315 121.103 2.34315 2.34315 121.103
447 1 1 53.4482 0.000836999 17.546 7.31083 4.9e-16 8 121.103 4.9e-16 8 121.103
448 1 1 46.3445 0.000725755 16.3384 6.80768 2.34315 2.34315 128.672 2.34315 2.34315 128.672
449 1 1 53.4482 0.000836999 17.546 7.31083 4.9e-16 8 128.672 4.9e-16 8 128.672
450 1 1 44.6609 0.000699389 16.0389 6.68288 2.34315 2.34315 136.241 2.34315 2.34315 136.241
451 1 1 55.6423 0.000871359 17.9025 7.45938 4.9e-16 8 136.241 4.9e-16 8 136.241
452 1 1 30.0729 0.000470942 13.1613 5.48388 5.17115 5.17135 143.81 5.17115 5.17135 143.81
453 1 1 49.6765 0.000777934 16.9156 7.04816 4 8 143.81 4 8 143.81
454 1 1 31.2589 0.000489514 13.4183 5.59096 5.17115 5.17135 151.379 5.17115 5.17135 151.379
455 1 1 43.6207 0.0006831 15.851 6.6046 4 8 151.379 4 8 151.379
456 1 1 45.1749 0.000707439 16.1309 6.72123 2.34315 2.34315 158.948 2.34315 2.34315 158.948
457 1 1 53.5385 0.000838413 17.5608 7.317 4.9e-16 8 158.948 4.9e-16 8 158.948
458 1 1 46.3445 0.000725755 16.3384 6.80768 2.34315 2.34315 166.517 2.34315 2.34315 166.517
459 1 1 53.4482 0.000836999 17.546 7.31083 4.9e-16 8 166.517 4.9e-16 8 166.517
460 1 1 46.3445 0.000725755 16.3384 6.80768 2.34315 2.34315 174.086 2.34315 2.34315 174.086
461 1 1 53.4482 0.000836999 17.546 7.31083 4.9e-16 8 174.086 4.9e-16 8 174.086
462 1 1 46.3445 0.000725755 16.3384 6.80768 2.34315 2.34315 181.655 2.34315 2.34315 181.655
463 1 1 53.4482 0.000836999 17.546 7.31083 4.9e-16 8 181.655 4.9e-16 8 181.655
464 1 1 46.3445 0.000725755 16.3384 6.80768 2.34315 2.34315 189.224 2.34315 2.34315 189.224
465 1 1 53.4482 0.000836999 17.546 7.31083 4.9e-16 8 189.224 4.9e-16 8 189.224
466 1 1 46.3445 0.000725755 16.3384 6.80768 2.34315 2.34315 196.793 2.34315 2.34315 196.793
467 1 1 53.4482 0.000836999 17.546 7.31083 4.9e-16 8 196.793 4.9e-16 8 196.793
468 1 1 46.3445 0.000725755 16.3384 6.80768 2.34315 2.34315 204.362 2.34315 2.34315 204.362
469 1 1 53.4482 0.000836999 17.546 7.31083 4.9e-16 8 204.362 4.9e-16 8 204.362
470 1 1 46.3445 0.000725755 16.3384 6.80768 2.34315 2.34315 211.931 2.34315 2.34315 211.931
471 1 1 53.4482 0.000836999 17.546 7.31083 4.9e-16 8 211.931 4.9e-16 8 211.931
472 1 1 44.6609 0.000699389 16.0389 6.68288 2.34315 2.34315 219.5 2.34315 2.34315 219.5
473 1 1 55.6423 0.000871359 17.9025 7.45938 4.9e-16 8 219.5 4.9e-16 8 219.5
474 1 1 17.7149 0.000277416 10.1014 4.20891 5.17115 5.17135 227.069 5.17115 5.17135 227.069
475 1 1 45.8144 0.000717454 16.2447 6.76864 4 8 227.069 4 8 227.069
476 1 1 18.1292 0.000283903 10.2188 4.25784 5.17115 5.17135 234.638 5.17115 5.17135 234.638
477 1 1 35.8965 0.000562139 14.3793 5.99137 4 8 234.638 4 8 234.638
478 1 1 45.1749 0.000707439 16.1309 6.72123 2.34315 2.34315 242.207 2.34315 2.34315 242.207
479 1 1 53.5385 0.000838413 17.5608 7.317 4.9e-16 8 242.207 4.9e-16 8 242.207
480 1 1 46.3445 0.000725755 16.3384 6.80768 2.34315 2.34315 249.776 2.34315 2.34315 249.776
481 1 1 53.4482 0.000836999 17.546 7.31083 4.9e-16 8 249.776 4.9e-16 8 249.776
482 1 1 46.3445 0.000725755 16.3384 6.80768 2.34315 2.34315 257.345 2.34315 2.34315 257.345
483 1 1 53.4482 0.000836999 17.546 7.31083 4.9e-16 8 257.345 4.9e-16 8 257.345
484 1 1 46.3445 0.000725755 16.3384 6.80768 2.34315 2.34315 264.914 2.34315 2.34315 264.914
485 1 1 53.4482 0.000836999 17.546 7.31083 4.9e-16 8 264.914 4.9e-16 8 264.914
486 1 1 23.1722 0.000362877 11.553 4.81376 2.34315 2.34315 272.483 2.34315 2.34315 272.483
487 1 1 35.6322 0.000558 14.3262 5.96927 4.9e-16 8 272.483 4.9e-16 8 272.483
532 1 1 45.1326 0.000706777 16.1234 6.71808 -4 48 0 -4 48 0
533 1 1 31.4671 0.000492774 13.4629 5.60955 0 40 0 0 40 0
534 1 1 30.2759 0.00047412 13.2056 5.50235 0 32 0 0 32 0
535 1 1 30.2759 0.00047412 13.2056 5.50235 0 24 0 0 24 0
536 1 1 30.2759 0.00047412 13.2056 5.50235 0 16 0 0 16 0
537 1 1 67.6987 0.00106016 19.747 8.22792 -4 48 7.56897 -4 48 7.56897
538 1 1 64.1252 0.0010042 19.2188 8.00782 0 40 7.56897 0 40 7.56897
539 1 1 60.5516 0.000948238 18.6756 7.78149 0 32 7.56897 0 32 7.56897
540 1 1 60.5516 0.000948238 18.6756 7.78149 0 24 7.56897 0 24 7.56897
541 1 1 60.5516 0.000948238 18.6756 7.78149 0 16 7.56897 0 16 7.56897
542 1 1 67.699 0.00106017 19.7471 8.22794 -4 48 15.1379 -4 48 15.1379
543 1 1 64.1253 0.0010042 19.2188 8.00783 0 40 15.1379 0 40 15.1379
544 1 1 60.5517 0.00094824 18.6756 7.7815 0 32 15.1379 0 32 15.1379
545 1 1 60.5517 0.00094824 18.6756 7.7815 0 24 15.1379 0 24 15.1379
546 1 1 60.5517 0.00094824 18.6756 7.7815 0 16 15.1379 0 16 15.1379
547 1 1 67.962 0.00106428 19.7854 8.24391 -4 48 22.7069 -4 48 22.7069
548 1 1 64.1256 0.00100421 19.2188 8.00785 0 40 22.7069 0 40 22.7069
549 1 1 60.552 0.000948244 18.6756 7.78152 0 32 22.7069 0 32 22.7069
550 1 1 60.552 0.000948244 18.6756 7.78152 0 24 22.7069 0 24 22.7069
551 1 1 60.552 0.000948244 18.6756 7.78152 0 16 22.7069 0 16 22.7069
552 1 1 63.1966 0.000989659 19.0791 7.94963 0 48 30.2759 0 48 30.2759
553 1 1 63.0654 0.000987604 19.0593 7.94137 0 40 30.2759 0 40 30.2759
554 1 1 60.5516 0.000948238 18.6756 7.78149 0 32 30.2759 0 32 30.2759
555 1 1 60.5516 0.000948238 18.6756 7.78149 0 24 30.2759 0 24 30.2759
556 1 1 60.5516 0.000948238 18.6756 7.78149 0 16 30.2759 0 16 30.2759
557 1 1 60.5517 0.00094824 18.6756 7.7815 0 48 37.8448 0 48 37.8448
558 1 1 60.5516 0.000948238 18.6756 7.78149 0 40 37.8448 0 40 37.8448
559 1 1 60.5516 0.000948238 18.6756 7.78149 0 32 37.8448 0 32 37.8448
560 1 1 60.5516 0.000948238 18.6756 7.78149 0 24 37.8448 0 24 37.8448
561 1 1 60.5516 0.000948238 18.6756 7.78149 0 16 37.8448 0 16 37.8448
562 1 1 60.552 0.000948244 18.6756 7.78152 0 48 45.4138 0 48 45.4138
563 1 1 60.552 0.000948244 18.6756 7.78152 0 40 45.4138 0 40 45.4138
564 1 1 60.552 0.000948244 18.6756 7.78152 0 32 45.4138 0 32 45.4138
565 1 1 60.552 0.000948244 18.6756 7.78152 0 24 45.4138 0 24 45.4138
566 1 1 60.552 0.000948244 18.6756 7.78152 0 16 45.4138 0 16 45.4138
567 1 1 65.8419 0.00103108 19.4743 8.1143 0 48 52.9828 0 48 52.9828
568 1 1 64.5194 0.00101037 19.2778 8.0324 0 40 52.9828 0 40 52.9828
569 1 1 64.5194 0.00101037 19.2778 8.0324 0 32 52.9828 0 32 52.9828
570 1 1 64.5194 0.00101037 19.2778 8.0324 0 24 52.9828 0 24 52.9828
571 1 1 64.5194 0.00101037 19.2778 8.0324 0 16 52.9828 0 16 52.9828
572 1 1 63.1969 0.000989664 19.0792 7.94965 4 48 60.5517 4 48 60.5517
573 1 1 64.5194 0.00101037 19.2778 8.0324 4 40 60.5517 4 40 60.5517
574 1 1 64.5194 0.00101037 19.2778 8.0324 4 32 60.5517 4 32 60.5517
575 1 1 64.5194 0.00101037 19.2778 8.0324 4 24 60.5517 4 24 60.5517
576 1 1 64.5194 0.00101037 19.2778 8.0324 4 16 60.5517 4 16 60.5517
577 1 1 65.8424 0.00103109 19.4744 8.11433 4 48 68.1207 4 48 68.1207
578 1 1 64.5198 0.00101038 19.2778 8.03242 4 40 68.1207 4 40 68.1207
579 1 1 64.5198 0.00101038 19.2778 8.03242 4 32 68.1207 4 32 68.1207
580 1 1 64.5198 0.00101038 19.2778 8.03242 4 24 68.1207 4 24 68.1207
581 1 1 64.5198 0.00101038 19.2778 8.03242 4 16 68.1207 4 16 68.1207
582 1 1 63.1967 0.00098966 19.0791 7.94963 0 48 75.6897 0 48 75.6897
583 1 1 64.5194 0.00101037 19.2777 8.0324 0 40 75.6897 0 40 75.6897
584 1 1 64.5194 0.00101037 19.2777 8.0324 0 32 75.6897 0 32 75.6897
585 1 1 64.5194 0.00101037 19.2777 8.0324 0 24 75.6897 0 24 75.6897
586 1 1 64.5194 0.00101037 19.2777 8.0324 0 16 75.6897 0 16 75.6897
587 1 1 60.5517 0.00094824 18.6756 7.7815 0 48 83.2586 0 48 83.2586
588 1 1 60.5516 0.000948238 18.6756 7.78149 0 40 83.2586 0 40 83.2586
589 1 1 60.5516 0.000948238 18.6756 7.78149 0 32 83.2586 0 32 83.2586
590 1 1 60.5516 0.000948238 18.6756 7.78149 0 24 83.2586 0 24 83.2586
591 1 1 60.5516 0.000948238 18.6756 7.78149 0 16 83.2586 0 16 83.2586
592 1 1 60.552 0.000948244 18.6756 7.78152 0 48 90.8276 0 48 90.8276
593 1 1 60.552 0.000948244 18.6756 7.78152 0 40 90.8276 0 40 90.8276
594 1 1 60.552 0.000948244 18.6756 7.78152 0 32 90.8276 0 32 90.8276