COMMENT
12590 atoms
1 atom types
-70.000000 20.000000 xlo xhi
0.000000 25.000000 ylo yhi
0.000000 10.000000 zlo zhi

Atoms

1 1 1 1.38 3.72601e-06 1.97055 1 15.9529 18.3803 0.5 15.9529 18.3803 0.5
2 1 1 1.38 3.72601e-06 1.97055 1 15.9529 18.3803 1.5 15.9529 18.3803 1.5
3 1 1 1.38 3.72601e-06 1.97055 1 15.9529 18.3803 2.5 15.9529 18.3803 2.5
4 1 1 1.38 3.72601e-06 1.97055 1 15.9529 18.3803 3.5 15.9529 18.3803 3.5
5 1 1 1.38 3.72601e-06 1.97055 1 15.9529 18.3803 4.5 15.9529 18.3803 4.5
6 1 1 1.38 3.72601e-06 1.97055 1 15.9529 18.3803 5.5 15.9529 18.3803 5.5
7 1 1 1.38 3.72601e-06 1.97055 1 15.9529 18.3803 6.5 15.9529 18.3803 6.5
8 1 1 1.38 3.72601e-06 1.97055 1 15.9529 18.3803 7.5 15.9529 18.3803 7.5
9 1 1 1.38 3.72601e-06 1.97055 1 15.9529 18.3803 8.5 15.9529 18.3803 8.5
10 1 1 1.38 3.72601e-06 1.97055 1 15.9529 18.3803 9.5 15.9529 18.3803 9.5
11 1 1 1.43596 3.8771e-06 2.44859 1 4.1427 10.54 0.5 4.1427 10.54 0.5
12 1 1 1.43596 3.8771e-06 2.44859 1 4.1427 10.54 1.5 4.1427 10.54 1.5
13 1 1 1.43596 3.8771e-06 2.44859 1 4.1427 10.54 2.5 4.1427 10.54 2.5
14 1 1 1.43596 3.8771e-06 2.44859 1 4.1427 10.54 3.5 4.1427 10.54 3.5
15 1 1 1.43596 3.8771e-06 2.44859 1 4.1427 10.54 4.5 4.1427 10.54 4.5
16 1 1 1.43596 3.8771e-06 2.44859 1 4.1427 10.54 5.5 4.1427 10.54 5.5
17 1 1 1.43596 3.8771e-06 2.44859 1 4.1427 10.54 6.5 4.1427 10.54 6.5
18 1 1 1.43596 3.8771e-06 2.44859 1 4.1427 10.54 7.5 4.1427 10.54 7.5
19 1 1 1.43596 3.8771e-06 2.44859 1 4.1427 10.54 8.5 4.1427 10.54 8.5
20 1 1 1.43596 3.8771e-06 2.44859 1 4.1427 10.54 9.5 4.1427 10.54 9.5
21 1 1 1.36443 3.68395e-06 1.96752 1 -13.3348 5.57861 0.5 -13.3348 5.57861 0.5
22 1 1 1.36443 3.68395e-06 1.96752 1 -13.3348 5.57861 1.5 -13.3348 5.57861 1.5
23 1 1 1.36443 3.68395e-06 1.96752 1 -13.3348 5.57861 2.5 -13.3348 5.57861 2.5
24 1 1 1.36443 3.68395e-06 1.96752 1 -13.3348 5.57861 3.5 -13.3348 5.57861 3.5
25 1 1 1.36443 3.68395e-06 1.96752 1 -13.3348 5.57861 4.5 -13.3348 5.57861 4.5
26 1 1 1.36443 3.68395e-06 1.96752 1 -13.3348 5.57861 5.5 -13.3348 5.57861 5.5
27 1 1 1.36443 3.68395e-06 1.96752 1 -13.3348 5.57861 6.5 -13.3348 5.57861 6.5
28 1 1 1.36443 3.68395e-06 1.96752 1 -13.3348 5.57861 7.5 -13.3348 5.57861 7.5
29 1 1 1.36443 3.68395e-06 1.96752 1 -13.3348 5.57861 8.5 -13.3348 5.57861 8.5
30 1 1 1.36443 3.68395e-06 1.96752 1 -13.3348 5.57861 9.5 -13.3348 5.57861 9.5
31 1 1 1.28241 3.46251e-06 2.1775 1 -46.1298 19.8862 0.5 -46.1298 19.8862 0.5
32 1 1 1.28241 3.46251e-06 2.1775 1 -46.1298 19.8862 1.5 -46.1298 19.8862 1.5
33 1 1 1.28241 3.46251e-06 2.1775 1 -46.1298 19.8862 2.5 -46.1298 19.8862 2.5
34 1 1 1.28241 3.46251e-06 2.1775 1 -46.1298 19.8862 3.5 -46.1298 19.8862 3.5
35 1 1 1.28241 3.46251e-06 2.1775 1 -46.1298 19.8862 4.5 -46.1298 19.8862 4.5
36 1 1 1.28241 3.46251e-06 2.1775 1 -46.1298 19.8862 5.5 -46.1298 19.8862 5.5
37 1 1 1.28241 3.46251e-06 2.1775 1 -46.1298 19.8862 6.5 -46.1298 19.8862 6.5
38 1 1 1.28241 3.46251e-06 2.1775 1 -46.1298 19.8862 7.5 -46.1298 19.8862 7.5
39 1 1 1.28241 3.46251e-06 2.1775 1 -46.1298 19.8862 8.5 -46.1298 19.8862 8.5
40 1 1 1.28241 3.46251e-06 2.1775 1 -46.1298 19.8862 9.5 -46.1298 19.8862 9.5
41 1 1 1.38993 3.75282e-06 1.96027 1 -68.2735 24.4053 0.5 -68.2735 24.4053 0.5
42 1 1 1.38993 3.75282e-06 1.96027 1 -68.2735 24.4053 1.5 -68.2735 24.4053 1.5
43 1 1 1.38993 3.75282e-06 1.96027 1 -68.2735 24.4053 2.5 -68.2735 24.4053 2.5
44 1 1 1.38993 3.75282e-06 1.96027 1 -68.2735 24.4053 3.5 -68.2735 24.4053 3.5
45 1 1 1.38993 3.75282e-06 1.96027 1 -68.2735 24.4053 4.5 -68.2735 24.4053 4.5
46 1 1 1.38993 3.75282e-06 1.96027 1 -68.2735 24.4053 5.5 -68.2735 24.4053 5.5
47 1 1 1.38993 3.75282e-06 1.96027 1 -68.2735 24.4053 6.5 -68.2735 24.4053 6.5
48 1 1 1.38993 3.75282e-06 1.96027 1 -68.2735 24.4053 7.5 -68.2735 24.4053 7.5
49 1 1 1.38993 3.75282e-06 1.96027 1 -68.2735 24.4053 8.5 -68.2735 24.4053 8.5
50 1 1 1.38993 3.75282e-06 1.96027 1 -68.2735 24.4053 9.5 -68.2735 24.4053 9.5
51 1 1 1.18912 3.21063e-06 2.27485 1 3.48672 12.0201 0.5 3.48672 12.0201 0.5
52 1 1 1.18912 3.21063e-06 2.27485 1 3.48672 12.0201 1.5 3.48672 12.0201 1.5
53 1 1 1.18912 3.21063e-06 2.27485 1 3.48672 12.0201 2.5 3.48672 12.0201 2.5
54 1 1 1.18912 3.21063e-06 2.27485 1 3.48672 12.0201 3.5 3.48672 12.0201 3.5
55 1 1 1.18912 3.21063e-06 2.27485 1 3.48672 12.0201 4.5 3.48672 12.0201 4.5
56 1 1 1.18912 3.21063e-06 2.27485 1 3.48672 12.0201 5.5 3.48672 12.0201 5.5
57 1 1 1.18912 3.21063e-06 2.27485 1 3.48672 12.0201 6.5 3.48672 12.0201 6.5
58 1 1 1.18912 3.21063e-06 2.27485 1 3.48672 12.0201 7.5 3.48672 12.0201 7.5
59 1 1 1.18912 3.21063e-06 2.27485 1 3.48672 12.0201 8.5 3.48672 12.0201 8.5
60 1 1 1.18912 3.21063e-06 2.27485 1 3.48672 12.0201 9.5 3.48672 12.0201 9.5
61 1 1 1.47723 3.98852e-06 2.00227 1 -38.448 12.4859 0.5 -38.448 12.4859 0.5
62 1 1 1.47723 3.98852e-06 2.00227 1 -38.448 12.4859 1.5 -38.448 12.4859 1.5
63 1 1 1.47723 3.98852e-06 2.00227 1 -38.448 12.4859 2.5 -38.448 12.4859 2.5
64 1 1 1.47723 3.98852e-06 2.00227 1 -38.448 12.4859 3.5 -38.448 12.4859 3.5
65 1 1 1.47723 3.98852e-06 2.00227 1 -38.448 12.4859 4.5 -38.448 12.4859 4.5
66 1 1 1.47723 3.98852e-06 2.00227 1 -38.448 12.4859 5.5 -38.448 12.4859 5.5
67 1 1 1.47723 3.98852e-06 2.00227 1 -38.448 12.4859 6.5 -38.448 12.4859 6.5
68 1 1 1.47723 3.98852e-06 2.00227 1 -38.448 12.4859 7.5 -38.448 12.4859 7.5
69 1 1 1.47723 3.98852e-06 2.00227 1 -38.448 12.4859 8.5 -38.448 12.4859 8.5
70 1 1 1.47723 3.98852e-06 2.00227 1 -38.448 12.4859 9.5 -38.448 12.4859 9.5
71 1 1 1.44653 3.90562e-06 1.98977 1 -37.1795 11.3354 0.5 -37.1795 11.3354 0.5
72 1 1 1.44653 3.90562e-06 1.98977 1 -37.1795 11.3354 1.5 -37.1795 11.3354 1.5
73 1 1 1.44653 3.90562e-06 1.98977 1 -37.1795 11.3354 2.5 -37.1795 11.3354 2.5
74 1 1 1.44653 3.90562e-06 1.98977 1 -37.1795 11.3354 3.5 -37.1795 11.3354 3.5
75 1 1 1.44653 3.90562e-06 1.98977 1 -37.1795 11.3354 4.5 -37.1795 11.3354 4.5
76 1 1 1.44653 3.90562e-06 1.98977 1 -37.1795 11.3354 5.5 -37.1795 11.3354 5.5
77 1 1 1.44653 3.90562e-06 1.98977 1 -37.1795 11.3354 6.5 -37.1795 11.3354 6.5
78 1 1 1.44653 3.90562e-06 1.98977 1 -37.1795 11.3354 7.5 -37.1795 11.3354 7.5
79 1 1 1.44653 3.90562e-06 1.98977 1 -37.1795 11.3354 8.5 -37.1795 11.3354 8.5
80 1 1 1.44653 3.90562e-06 1.98977 1 -37.1795 11.3354 9.5 -37.1795 11.3354 9.5
81 1 1 1.22171 3.29863e-06 2.05646 1 -69.5102 0.752371 0.5 -69.5102 0.752371 0.5
82 1 1 1.22171 3.29863e-06 2.05646 1 -69.5102 0.752371 1.5 -69.5102 0.752371 1.5
83 1 1 1.22171 3.29863e-06 2.05646 1 -69.5102 0.752371 2.5 -69.5102 0.752371 2.5
84 1 1 1.22171 3.29863e-06 2.05646 1 -69.5102 0.752371 3.5 -69.5102 0.752371 3.5
85 1 1 1.22171 3.29863e-06 2.05646 1 -69.5102 0.752371 4.5 -69.5102 0.752371 4.5
86 1 1 1.22171 3.29863e-06 2.05646 1 -69.5102 0.752371 5.5 -69.5102 0.752371 5.5
87 1 1 1.22171 3.29863e-06 2.05646 1 -69.5102 0.752371 6.5 -69.5102 0.752371 6.5
88 1 1 1.22171 3.29863e-06 2.05646 1 -69.5102 0.752371 7.5 -69.5102 0.752371 7.5
89 1 1 1.22171 3.29863e-06 2.05646 1 -69.5102 0.752371 8.5 -69.5102 0.752371 8.5
90 1 1 1.22171 3.29863e-06 2.05646 1 -69.5102 0.752371 9.5 -69.5102 0.752371 9.5
91 1 1 1.38098 3.72864e-06 1.94178 1 19.4129 5.33309 0.5 19.4129 5.33309 0.5
92 1 1 1.38098 3.72864e-06 1.94178 1 19.4129 5.33309 1.5 19.4129 5.33309 1.5
93 1 1 1.38098 3.72864e-06 1.94178 1 19.4129 5.33309 2.5 19.4129 5.33309 2.5
94 1 1 1.38098 3.72864e-06 1.94178 1 19.4129 5.33309 3.5 19.4129 5.33309 3.5
95 1 1 1.38098 3.72864e-06 1.94178 1 19.4129 5.33309 4.5 19.4129 5.33309 4.5
96 1 1 1.38098 3.72864e-06 1.94178 1 19.4129 5.33309 5.5 19.4129 5.33309 5.5
97 1 1 1.38098 3.72864e-06 1.94178 1 19.4129 5.33309 6.5 19.4129 5.33309 6.5
98 1 1 1.38098 3.72864e-06 1.94178 1 19.4129 5.33309 7.5 19.4129 5.33309 7.5
99 1 1 1.38098 3.72864e-06 1.94178 1 19.4129 5.33309 8.5 19.4129 5.33309 8.5
100 1 1 1.38098 3.72864e-06 1.94178 1 19.4129 5.33309 9.5 19.4129 5.33309 9.5
101 1 1 1.38626 3.74291e-06 1.95355 1 -67.0896 23.2246 0.5 -67.0896 23.2246 0.5
102 1 1 1.38626 3.74291e-06 1.95355 1 -67.0896 23.2246 1.5 -67.0896 23.2246 1.5
103 1 1 1.38626 3.74291e-06 1.95355 1 -67.0896 23.2246 2.5 -67.0896 23.2246 2.5
104 1 1 1.38626 3.74291e-06 1.95355 1 -67.0896 23.2246 3.5 -67.0896 23.2246 3.5
105 1 1 1.38626 3.74291e-06 1.95355 1 -67.0896 23.2246 4.5 -67.0896 23.2246 4.5
106 1 1 1.38626 3.74291e-06 1.95355 1 -67.0896 23.2246 5.5 -67.0896 23.2246 5.5
107 1 1 1.38626 3.74291e-06 1.95355 1 -67.0896 23.2246 6.5 -67.0896 23.2246 6.5
108 1 1 1.38626 3.74291e-06 1.95355 1 -67.0896 23.2246 7.5 -67.0896 23.2246 7.5
109 1 1 1.38626 3.74291e-06 1.95355 1 -67.0896 23.2246 8.5 -67.0896 23.2246 8.5
110 1 1 1.38626 3.74291e-06 1.95355 1 -67.0896 23.2246 9.5 -67.0896 23.2246 9.5
111 1 1 1.15458 3.11737e-06 2.349 1 3.40578 12.9484 0.5 3.40578 12.9484 0.5
112 1 1 1.15458 3.11737e-06 2.349 1 3.40578 12.9484 1.5 3.40578 12.9484 1.5
113 1 1 1.15458 3.11737e-06 2.349 1 3.40578 12.9484 2.5 3.40578 12.9484 2.5
114 1 1 1.15458 3.11737e-06 2.349 1 3.40578 12.9484 3.5 3.40578 12.9484 3.5
115 1 1 1.15458 3.11737e-06 2.349 1 3.40578 12.9484 4.5 3.40578 12.9484 4.5
116 1 1 1.15458 3.11737e-06 2.349 1 3.40578 12.9484 5.5 3.40578 12.9484 5.5
117 1 1 1.15458 3.11737e-06 2.349 1 3.40578 12.9484 6.5 3.40578 12.9484 6.5
118 1 1 1.15458 3.11737e-06 2.349 1 3.40578 12.9484 7.5 3.40578 12.9484 7.5
119 1 1 1.15458 3.11737e-06 2.349 1 3.40578 12.9484 8.5 3.40578 12.9484 8.5
120 1 1 1.15458 3.11737e-06 2.349 1 3.40578 12.9484 9.5 3.40578 12.9484 9.5
121 1 1 1.5052 4.06403e-06 2.05188 1 -39.6981 13.6424 0.5 -39.6981 13.6424 0.5
122 1 1 1.5052 4.06403e-06 2.05188 1 -39.6981 13.6424 1.5 -39.6981 13.6424 1.5
123 1 1 1.5052 4.06403e-06 2.05188 1 -39.6981 13.6424 2.5 -39.6981 13.6424 2.5
124 1 1 1.5052 4.06403e-06 2.05188 1 -39.6981 13.6424 3.5 -39.6981 13.6424 3.5
125 1 1 1.5052 4.06403e-06 2.05188 1 -39.6981 13.6424 4.5 -39.6981 13.6424 4.5
126 1 1 1.5052 4.06403e-06 2.05188 1 -39.6981 13.6424 5.5 -39.6981 13.6424 5.5
127 1 1 1.5052 4.06403e-06 2.05188 1 -39.6981 13.6424 6.5 -39.6981 13.6424 6.5
128 1 1 1.5052 4.06403e-06 2.05188 1 -39.6981 13.6424 7.5 -39.6981 13.6424 7.5
129 1 1 1.5052 4.06403e-06 2.05188 1 -39.6981 13.6424 8.5 -39.6981 13.6424 8.5
130 1 1 1.5052 4.06403e-06 2.05188 1 -39.6981 13.6424 9.5 -39.6981 13.6424 9.5
131 1 1 1.41254 3.81385e-06 1.97233 1 -16.5412 12.4928 0.5 -16.5412 12.4928 0.5
132 1 1 1.41254 3.81385e-06 1.97233 1 -16.5412 12.4928 1.5 -16.5412 12.4928 1.5
133 1 1 1.41254 3.81385e-06 1.97233 1 -16.5412 12.4928 2.5 -16.5412 12.4928 2.5
134 1 1 1.41254 3.81385e-06 1.97233 1 -16.5412 12.4928 3.5 -16.5412 12.4928 3.5
135 1 1 1.41254 3.81385e-06 1.97233 1 -16.5412 12.4928 4.5 -16.5412 12.4928 4.5
136 1 1 1.41254 3.81385e-06 1.97233 1 -16.5412 12.4928 5.5 -16.5412 12.4928 5.5
137 1 1 1.41254 3.81385e-06 1.97233 1 -16.5412 12.4928 6.5 -16.5412 12.4928 6.5
138 1 1 1.41254 3.81385e-06 1.97233 1 -16.5412 12.4928 7.5 -16.5412 12.4928 7.5
139 1 1 1.41254 3.81385e-06 1.97233 1 -16.5412 12.4928 8.5 -16.5412 12.4928 8.5
140 1 1 1.41254 3.81385e-06 1.97233 1 -16.5412 12.4928 9.5 -16.5412 12.4928 9.5
141 1 1 1.41761 3.82755e-06 1.98942 1 -15.3458 11.3369 0.5 -15.3458 11.3369 0.5
142 1 1 1.41761 3.82755e-06 1.98942 1 -15.3458 11.3369 1.5 -15.3458 11.3369 1.5
143 1 1 1.41761 3.82755e-06 1.98942 1 -15.3458 11.3369 2.5 -15.3458 11.3369 2.5
144 1 1 1.41761 3.82755e-06 1.98942 1 -15.3458 11.3369 3.5 -15.3458 11.3369 3.5
145 1 1 1.41761 3.82755e-06 1.98942 1 -15.3458 11.3369 4.5 -15.3458 11.3369 4.5
146 1 1 1.41761 3.82755e-06 1.98942 1 -15.3458 11.3369 5.5 -15.3458 11.3369 5.5
147 1 1 1.41761 3.82755e-06 1.98942 1 -15.3458 11.3369 6.5 -15.3458 11.3369 6.5
148 1 1 1.41761 3.82755e-06 1.98942 1 -15.3458 11.3369 7.5 -15.3458 11.3369 7.5
149 1 1 1.41761 3.82755e-06 1.98942 1 -15.3458 11.3369 8.5 -15.3458 11.3369 8.5
150 1 1 1.41761 3.82755e-06 1.98942 1 -15.3458 11.3369 9.5 -15.3458 11.3369 9.5
151 1 1 1.38622 3.7428e-06 1.94942 1 -65.9073 22.0456 0.5 -65.9073 22.0456 0.5
152 1 1 1.38622 3.7428e-06 1.94942 1 -65.9073 22.0456 1.5 -65.9073 22.0456 1.5
153 1 1 1.38622 3.7428e-06 1.94942 1 -65.9073 22.0456 2.5 -65.9073 22.0456 2.5
154 1 1 1.38622 3.7428e-06 1.94942 1 -65.9073 22.0456 3.5 -65.9073 22.0456 3.5
155 1 1 1.38622 3.7428e-06 1.94942 1 -65.9073 22.0456 4.5 -65.9073 22.0456 4.5
156 1 1 1.38622 3.7428e-06 1.94942 1 -65.9073 22.0456 5.5 -65.9073 22.0456 5.5
157 1 1 1.38622 3.7428e-06 1.94942 1 -65.9073 22.0456 6.5 -65.9073 22.0456 6.5
158 1 1 1.38622 3.7428e-06 1.94942 1 -65.9073 22.0456 7.5 -65.9073 22.0456 7.5
159 1 1 1.38622 3.7428e-06 1.94942 1 -65.9073 22.0456 8.5 -65.9073 22.0456 8.5
160 1 1 1.38622 3.7428e-06 1.94942 1 -65.9073 22.0456 9.5 -65.9073 22.0456 9.5
161 1 1 1.36298 3.68005e-06 2.47833 1 3.80288 14.4417 0.5 3.80288 14.4417 0.5
162 1 1 1.36298 3.68005e-06 2.47833 1 3.80288 14.4417 1.5 3.80288 14.4417 1.5
163 1 1 1.36298 3.68005e-06 2.47833 1 3.80288 14.4417 2.5 3.80288 14.4417 2.5
164 1 1 1.36298 3.68005e-06 2.47833 1 3.80288 14.4417 3.5 3.80288 14.4417 3.5
165 1 1 1.36298 3.68005e-06 2.47833 1 3.80288 14.4417 4.5 3.80288 14.4417 4.5
166 1 1 1.36298 3.68005e-06 2.47833 1 3.80288 14.4417 5.5 3.80288 14.4417 5.5
167 1 1 1.36298 3.68005e-06 2.47833 1 3.80288 14.4417 6.5 3.80288 14.4417 6.5
168 1 1 1.36298 3.68005e-06 2.47833 1 3.80288 14.4417 7.5 3.80288 14.4417 7.5
169 1 1 1.36298 3.68005e-06 2.47833 1 3.80288 14.4417 8.5 3.80288 14.4417 8.5
170 1 1 1.36298 3.68005e-06 2.47833 1 3.80288 14.4417 9.5 3.80288 14.4417 9.5
171 1 1 1.51029 4.07777e-06 2.107 1 -40.8948 14.8104 0.5 -40.8948 14.8104 0.5
172 1 1 1.51029 4.07777e-06 2.107 1 -40.8948 14.8104 1.5 -40.8948 14.8104 1.5
173 1 1 1.51029 4.07777e-06 2.107 1 -40.8948 14.8104 2.5 -40.8948 14.8104 2.5
174 1 1 1.51029 4.07777e-06 2.107 1 -40.8948 14.8104 3.5 -40.8948 14.8104 3.5
175 1 1 1.51029 4.07777e-06 2.107 1 -40.8948 14.8104 4.5 -40.8948 14.8104 4.5
176 1 1 1.51029 4.07777e-06 2.107 1 -40.8948 14.8104 5.5 -40.8948 14.8104 5.5
177 1 1 1.51029 4.07777e-06 2.107 1 -40.8948 14.8104 6.5 -40.8948 14.8104 6.5
178 1 1 1.51029 4.07777e-06 2.107 1 -40.8948 14.8104 7.5 -40.8948 14.8104 7.5
179 1 1 1.51029 4.07777e-06 2.107 1 -40.8948 14.8104 8.5 -40.8948 14.8104 8.5
180 1 1 1.51029 4.07777e-06 2.107 1 -40.8948 14.8104 9.5 -40.8948 14.8104 9.5
181 1 1 1.40359 3.7897e-06 1.95788 1 -17.748 13.6479 0.5 -17.748 13.6479 0.5
182 1 1 1.40359 3.7897e-06 1.95788 1 -17.748 13.6479 1.5 -17.748 13.6479 1.5
183 1 1 1.40359 3.7897e-06 1.95788 1 -17.748 13.6479 2.5 -17.748 13.6479 2.5
184 1 1 1.40359 3.7897e-06 1.95788 1 -17.748 13.6479 3.5 -17.748 13.6479 3.5
185 1 1 1.40359 3.7897e-06 1.95788 1 -17.748 13.6479 4.5 -17.748 13.6479 4.5
186 1 1 1.40359 3.7897e-06 1.95788 1 -17.748 13.6479 5.5 -17.748 13.6479 5.5
187 1 1 1.40359 3.7897e-06 1.95788 1 -17.748 13.6479 6.5 -17.748 13.6479 6.5
188 1 1 1.40359 3.7897e-06 1.95788 1 -17.748 13.6479 7.5 -17.748 13.6479 7.5
189 1 1 1.40359 3.7897e-06 1.95788 1 -17.748 13.6479 8.5 -17.748 13.6479 8.5
190 1 1 1.40359 3.7897e-06 1.95788 1 -17.748 13.6479 9.5 -17.748 13.6479 9.5
191 1 1 1.32886 3.58792e-06 2.01481 1 -69.455 1.97457 0.5 -69.455 1.97457 0.5
192 1 1 1.32886 3.58792e-06 2.01481 1 -69.455 1.97457 1.5 -69.455 1.97457 1.5
193 1 1 1.32886 3.58792e-06 2.01481 1 -69.455 1.97457 2.5 -69.455 1.97457 2.5
194 1 1 1.32886 3.58792e-06 2.01481 1 -69.455 1.97457 3.5 -69.455 1.97457 3.5
195 1 1 1.32886 3.58792e-06 2.01481 1 -69.455 1.97457 4.5 -69.455 1.97457 4.5
196 1 1 1.32886 3.58792e-06 2.01481 1 -69.455 1.97457 5.5 -69.455 1.97457 5.5
197 1 1 1.32886 3.58792e-06 2.01481 1 -69.455 1.97457 6.5 -69.455 1.97457 6.5
198 1 1 1.32886 3.58792e-06 2.01481 1 -69.455 1.97457 7.5 -69.455 1.97457 7.5
199 1 1 1.32886 3.58792e-06 2.01481 1 -69.455 1.97457 8.5 -69.455 1.97457 8.5
200 1 1 1.32886 3.58792e-06 2.01481 1 -69.455 1.97457 9.5 -69.455 1.97457 9.5
201 1 1 1.37383 3.70934e-06 1.95176 1 19.4189 1.79902 0.5 19.4189 1.79902 0.5
202 1 1 1.37383 3.70934e-06 1.95176 1 19.4189 1.79902 1.5 19.4189 1.79902 1.5
203 1 1 1.37383 3.70934e-06 1.95176 1 19.4189 1.79902 2.5 19.4189 1.79902 2.5
204 1 1 1.37383 3.70934e-06 1.95176 1 19.4189 1.79902 3.5 19.4189 1.79902 3.5
205 1 1 1.37383 3.70934e-06 1.95176 1 19.4189 1.79902 4.5 19.4189 1.79902 4.5
206 1 1 1.37383 3.70934e-06 1.95176 1 19.4189 1.79902 5.5 19.4189 1.79902 5.5
207 1 1 1.37383 3.70934e-06 1.95176 1 19.4189 1.79902 6.5 19.4189 1.79902 6.5
208 1 1 1.37383 3.70934e-06 1.95176 1 19.4189 1.79902 7.5 19.4189 1.79902 7.5
209 1 1 1.37383 3.70934e-06 1.95176 1 19.4189 1.79902 8.5 19.4189 1.79902 8.5
210 1 1 1.37383 3.70934e-06 1.95176 1 19.4189 1.79902 9.5 19.4189 1.79902 9.5
211 1 1 1.35411 3.6561e-06 1.95723 1 19.4287 0.615651 0.5 19.4287 0.615651 0.5
212 1 1 1.35411 3.6561e-06 1.95723 1 19.4287 0.615651 1.5 19.4287 0.615651 1.5
213 1 1 1.35411 3.6561e-06 1.95723 1 19.4287 0.615651 2.5 19.4287 0.615651 2.5
214 1 1 1.35411 3.6561e-06 1.95723 1 19.4287 0.615651 3.5 19.4287 0.615651 3.5
215 1 1 1.35411 3.6561e-06 1.95723 1 19.4287 0.615651 4.5 19.4287 0.615651 4.5
216 1 1 1.35411 3.6561e-06 1.95723 1 19.4287 0.615651 5.5 19.4287 0.615651 5.5
217 1 1 1.35411 3.6561e-06 1.95723 1 19.4287 0.615651 6.5 19.4287 0.615651 6.5
218 1 1 1.35411 3.6561e-06 1.95723 1 19.4287 0.615651 7.5 19.4287 0.615651 7.5
219 1 1 1.35411 3.6561e-06 1.95723 1 19.4287 0.615651 8.5 19.4287 0.615651 8.5
220 1 1 1.35411 3.6561e-06 1.95723 1 19.4287 0.615651 9.5 19.4287 0.615651 9.5
221 1 1 1.38643 3.74337e-06 1.94592 1 -64.728 20.8679 0.5 -64.728 20.8679 0.5
222 1 1 1.38643 3.74337e-06 1.94592 1 -64.728 20.8679 1.5 -64.728 20.8679 1.5
223 1 1 1.38643 3.74337e-06 1.94592 1 -64.728 20.8679 2.5 -64.728 20.8679 2.5
224 1 1 1.38643 3.74337e-06 1.94592 1 -64.728 20.8679 3.5 -64.728 20.8679 3.5
225 1 1 1.38643 3.74337e-06 1.94592 1 -64.728 20.8679 4.5 -64.728 20.8679 4.5
226 1 1 1.38643 3.74337e-06 1.94592 1 -64.728 20.8679 5.5 -64.728 20.8679 5.5
227 1 1 1.38643 3.74337e-06 1.94592 1 -64.728 20.8679 6.5 -64.728 20.8679 6.5
228 1 1 1.38643 3.74337e-06 1.94592 1 -64.728 20.8679 7.5 -64.728 20.8679 7.5
229 1 1 1.38643 3.74337e-06 1.94592 1 -64.728 20.8679 8.5 -64.728 20.8679 8.5
230 1 1 1.38643 3.74337e-06 1.94592 1 -64.728 20.8679 9.5 -64.728 20.8679 9.5
231 1 1 1.48087 3.99836e-06 2.14739 1 -42.0096 15.9949 0.5 -42.0096 15.9949 0.5
232 1 1 1.48087 3.99836e-06 2.14739 1 -42.0096 15.9949 1.5 -42.0096 15.9949 1.5
233 1 1 1.48087 3.99836e-06 2.14739 1 -42.0096 15.9949 2.5 -42.0096 15.9949 2.5
234 1 1 1.48087 3.99836e-06 2.14739 1 -42.0096 15.9949 3.5 -42.0096 15.9949 3.5
235 1 1 1.48087 3.99836e-06 2.14739 1 -42.0096 15.9949 4.5 -42.0096 15.9949 4.5
236 1 1 1.48087 3.99836e-06 2.14739 1 -42.0096 15.9949 5.5 -42.0096 15.9949 5.5
237 1 1 1.48087 3.99836e-06 2.14739 1 -42.0096 15.9949 6.5 -42.0096 15.9949 6.5
238 1 1 1.48087 3.99836e-06 2.14739 1 -42.0096 15.9949 7.5 -42.0096 15.9949 7.5
239 1 1 1.48087 3.99836e-06 2.14739 1 -42.0096 15.9949 8.5 -42.0096 15.9949 8.5
240 1 1 1.48087 3.99836e-06 2.14739 1 -42.0096 15.9949 9.5 -42.0096 15.9949 9.5
241 1 1 1.39308 3.76131e-06 1.94857 1 -18.957 14.8023 0.5 -18.957 14.8023 0.5
242 1 1 1.39308 3.76131e-06 1.94857 1 -18.957 14.8023 1.5 -18.957 14.8023 1.5
243 1 1 1.39308 3.76131e-06 1.94857 1 -18.957 14.8023 2.5 -18.957 14.8023 2.5
244 1 1 1.39308 3.76131e-06 1.94857 1 -18.957 14.8023 3.5 -18.957 14.8023 3.5
245 1 1 1.39308 3.76131e-06 1.94857 1 -18.957 14.8023 4.5 -18.957 14.8023 4.5
246 1 1 1.39308 3.76131e-06 1.94857 1 -18.957 14.8023 5.5 -18.957 14.8023 5.5
247 1 1 1.39308 3.76131e-06 1.94857 1 -18.957 14.8023 6.5 -18.957 14.8023 6.5
248 1 1 1.39308 3.76131e-06 1.94857 1 -18.957 14.8023 7.5 -18.957 14.8023 7.5
249 1 1 1.39308 3.76131e-06 1.94857 1 -18.957 14.8023 8.5 -18.957 14.8023 8.5
250 1 1 1.39308 3.76131e-06 1.94857 1 -18.957 14.8023 9.5 -18.957 14.8023 9.5
251 1 1 1.26423 3.41342e-06 2.36594 1 4.27047 16.0103 0.5 4.27047 16.0103 0.5
252 1 1 1.26423 3.41342e-06 2.36594 1 4.27047 16.0103 1.5 4.27047 16.0103 1.5
253 1 1 1.26423 3.41342e-06 2.36594 1 4.27047 16.0103 2.5 4.27047 16.0103 2.5
254 1 1 1.26423 3.41342e-06 2.36594 1 4.27047 16.0103 3.5 4.27047 16.0103 3.5
255 1 1 1.26423 3.41342e-06 2.36594 1 4.27047 16.0103 4.5 4.27047 16.0103 4.5
256 1 1 1.26423 3.41342e-06 2.36594 1 4.27047 16.0103 5.5 4.27047 16.0103 5.5
257 1 1 1.26423 3.41342e-06 2.36594 1 4.27047 16.0103 6.5 4.27047 16.0103 6.5
258 1 1 1.26423 3.41342e-06 2.36594 1 4.27047 16.0103 7.5 4.27047 16.0103 7.5
259 1 1 1.26423 3.41342e-06 2.36594 1 4.27047 16.0103 8.5 4.27047 16.0103 8.5
260 1 1 1.26423 3.41342e-06 2.36594 1 4.27047 16.0103 9.5 4.27047 16.0103 9.5
261 1 1 1.4286 3.85723e-06 2.05592 1 -68.4524 0.627308 0.5 -68.4524 0.627308 0.5
262 1 1 1.4286 3.85723e-06 2.05592 1 -68.4524 0.627308 1.5 -68.4524 0.627308 1.5
263 1 1 1.4286 3.85723e-06 2.05592 1 -68.4524 0.627308 2.5 -68.4524 0.627308 2.5
264 1 1 1.4286 3.85723e-06 2.05592 1 -68.4524 0.627308 3.5 -68.4524 0.627308 3.5
265 1 1 1.4286 3.85723e-06 2.05592 1 -68.4524 0.627308 4.5 -68.4524 0.627308 4.5
266 1 1 1.4286 3.85723e-06 2.05592 1 -68.4524 0.627308 5.5 -68.4524 0.627308 5.5
267 1 1 1.4286 3.85723e-06 2.05592 1 -68.4524 0.627308 6.5 -68.4524 0.627308 6.5
268 1 1 1.4286 3.85723e-06 2.05592 1 -68.4524 0.627308 7.5 -68.4524 0.627308 7.5
269 1 1 1.4286 3.85723e-06 2.05592 1 -68.4524 0.627308 8.5 -68.4524 0.627308 8.5
270 1 1 1.4286 3.85723e-06 2.05592 1 -68.4524 0.627308 9.5 -68.4524 0.627308 9.5
271 1 1 1.38078 3.72811e-06 1.94662 1 -63.5561 19.6923 0.5 -63.5561 19.6923 0.5
272 1 1 1.38078 3.72811e-06 1.94662 1 -63.5561 19.6923 1.5 -63.5561 19.6923 1.5
273 1 1 1.38078 3.72811e-06 1.94662 1 -63.5561 19.6923 2.5 -63.5561 19.6923 2.5
274 1 1 1.38078 3.72811e-06 1.94662 1 -63.5561 19.6923 3.5 -63.5561 19.6923 3.5
275 1 1 1.38078 3.72811e-06 1.94662 1 -63.5561 19.6923 4.5 -63.5561 19.6923 4.5
276 1 1 1.38078 3.72811e-06 1.94662 1 -63.5561 19.6923 5.5 -63.5561 19.6923 5.5
277 1 1 1.38078 3.72811e-06 1.94662 1 -63.5561 19.6923 6.5 -63.5561 19.6923 6.5
278 1 1 1.38078 3.72811e-06 1.94662 1 -63.5561 19.6923 7.5 -63.5561 19.6923 7.5
279 1 1 1.38078 3.72811e-06 1.94662 1 -63.5561 19.6923 8.5 -63.5561 19.6923 8.5
280 1 1 1.38078 3.72811e-06 1.94662 1 -63.5561 19.6923 9.5 -63.5561 19.6923 9.5
281 1 1 1.31296 3.54499e-06 2.20413 1 -3.64127 19.9262 0.5 -3.64127 19.9262 0.5
282 1 1 1.31296 3.54499e-06 2.20413 1 -3.64127 19.9262 1.5 -3.64127 19.9262 1.5
283 1 1 1.31296 3.54499e-06 2.20413 1 -3.64127 19.9262 2.5 -3.64127 19.9262 2.5
284 1 1 1.31296 3.54499e-06 2.20413 1 -3.64127 19.9262 3.5 -3.64127 19.9262 3.5
285 1 1 1.31296 3.54499e-06 2.20413 1 -3.64127 19.9262 4.5 -3.64127 19.9262 4.5
286 1 1 1.31296 3.54499e-06 2.20413 1 -3.64127 19.9262 5.5 -3.64127 19.9262 5.5
287 1 1 1.31296 3.54499e-06 2.20413 1 -3.64127 19.9262 6.5 -3.64127 19.9262 6.5
288 1 1 1.31296 3.54499e-06 2.20413 1 -3.64127 19.9262 7.5 -3.64127 19.9262 7.5
289 1 1 1.31296 3.54499e-06 2.20413 1 -3.64127 19.9262 8.5 -3.64127 19.9262 8.5
290 1 1 1.31296 3.54499e-06 2.20413 1 -3.64127 19.9262 9.5 -3.64127 19.9262 9.5
291 1 1 1.42125 3.83738e-06 2.16566 1 -43.0409 17.1983 0.5 -43.0409 17.1983 0.5
292 1 1 1.42125 3.83738e-06 2.16566 1 -43.0409 17.1983 1.5 -43.0409 17.1983 1.5
293 1 1 1.42125 3.83738e-06 2.16566 1 -43.0409 17.1983 2.5 -43.0409 17.1983 2.5
294 1 1 1.42125 3.83738e-06 2.16566 1 -43.0409 17.1983 3.5 -43.0409 17.1983 3.5
295 1 1 1.42125 3.83738e-06 2.16566 1 -43.0409 17.1983 4.5 -43.0409 17.1983 4.5
296 1 1 1.42125 3.83738e-06 2.16566 1 -43.0409 17.1983 5.5 -43.0409 17.1983 5.5
297 1 1 1.42125 3.83738e-06 2.16566 1 -43.0409 17.1983 6.5 -43.0409 17.1983 6.5
298 1 1 1.42125 3.83738e-06 2.16566 1 -43.0409 17.1983 7.5 -43.0409 17.1983 7.5
299 1 1 1.42125 3.83738e-06 2.16566 1 -43.0409 17.1983 8.5 -43.0409 17.1983 8.5
300 1 1 1.42125 3.83738e-06 2.16566 1 -43.0409 17.1983 9.5 -43.0409 17.1983 9.5
301 1 1 1.38245 3.73261e-06 1.94308 1 -20.1616 15.9562 0.5 -20.1616 15.9562 0.5
302 1 1 1.38245 3.73261e-06 1.94308 1 -20.1616 15.9562 1.5 -20.1616 15.9562 1.5
303 1 1 1.38245 3.73261e-06 1.94308 1 -20.1616 15.9562 2.5 -20.1616 15.9562 2.5
304 1 1 1.38245 3.73261e-06 1.94308 1 -20.1616 15.9562 3.5 -20.1616 15.9562 3.5
305 1 1 1.38245 3.73261e-06 1.94308 1 -20.1616 15.9562 4.5 -20.1616 15.9562 4.5
306 1 1 1.38245 3.73261e-06 1.94308 1 -20.1616 15.9562 5.5 -20.1616 15.9562 5.5
307 1 1 1.38245 3.73261e-06 1.94308 1 -20.1616 15.9562 6.5 -20.1616 15.9562 6.5
308 1 1 1.38245 3.73261e-06 1.94308 1 -20.1616 15.9562 7.5 -20.1616 15.9562 7.5
309 1 1 1.38245 3.73261e-06 1.94308 1 -20.1616 15.9562 8.5 -20.1616 15.9562 8.5
310 1 1 1.38245 3.73261e-06 1.94308 1 -20.1616 15.9562 9.5 -20.1616 15.9562 9.5
311 1 1 1.36009 3.67225e-06 1.94188 1 -62.3992 18.5218 0.5 -62.3992 18.5218 0.5
312 1 1 1.36009 3.67225e-06 1.94188 1 -62.3992 18.5218 1.5 -62.3992 18.5218 1.5
313 1 1 1.36009 3.67225e-06 1.94188 1 -62.3992 18.5218 2.5 -62.3992 18.5218 2.5
314 1 1 1.36009 3.67225e-06 1.94188 1 -62.3992 18.5218 3.5 -62.3992 18.5218 3.5
315 1 1 1.36009 3.67225e-06 1.94188 1 -62.3992 18.5218 4.5 -62.3992 18.5218 4.5
316 1 1 1.36009 3.67225e-06 1.94188 1 -62.3992 18.5218 5.5 -62.3992 18.5218 5.5
317 1 1 1.36009 3.67225e-06 1.94188 1 -62.3992 18.5218 6.5 -62.3992 18.5218 6.5
318 1 1 1.36009 3.67225e-06 1.94188 1 -62.3992 18.5218 7.5 -62.3992 18.5218 7.5
319 1 1 1.36009 3.67225e-06 1.94188 1 -62.3992 18.5218 8.5 -62.3992 18.5218 8.5
320 1 1 1.36009 3.67225e-06 1.94188 1 -62.3992 18.5218 9.5 -62.3992 18.5218 9.5
321 1 1 1.32205 3.56953e-06 2.27102 1 -2.17594 19.2013 0.5 -2.17594 19.2013 0.5
322 1 1 1.32205 3.56953e-06 2.27102 1 -2.17594 19.2013 1.5 -2.17594 19.2013 1.5
323 1 1 1.32205 3.56953e-06 2.27102 1 -2.17594 19.2013 2.5 -2.17594 19.2013 2.5
324 1 1 1.32205 3.56953e-06 2.27102 1 -2.17594 19.2013 3.5 -2.17594 19.2013 3.5
325 1 1 1.32205 3.56953e-06 2.27102 1 -2.17594 19.2013 4.5 -2.17594 19.2013 4.5
326 1 1 1.32205 3.56953e-06 2.27102 1 -2.17594 19.2013 5.5 -2.17594 19.2013 5.5
327 1 1 1.32205 3.56953e-06 2.27102 1 -2.17594 19.2013 6.5 -2.17594 19.2013 6.5
328 1 1 1.32205 3.56953e-06 2.27102 1 -2.17594 19.2013 7.5 -2.17594 19.2013 7.5
329 1 1 1.32205 3.56953e-06 2.27102 1 -2.17594 19.2013 8.5 -2.17594 19.2013 8.5
330 1 1 1.32205 3.56953e-06 2.27102 1 -2.17594 19.2013 9.5 -2.17594 19.2013 9.5
331 1 1 1.34212 3.62372e-06 2.16552 1 -44.0066 18.4145 0.5 -44.0066 18.4145 0.5
332 1 1 1.34212 3.62372e-06 2.16552 1 -44.0066 18.4145 1.5 -44.0066 18.4145 1.5
333 1 1 1.34212 3.62372e-06 2.16552 1 -44.0066 18.4145 2.5 -44.0066 18.4145 2.5
334 1 1 1.34212 3.62372e-06 2.16552 1 -44.0066 18.4145 3.5 -44.0066 18.4145 3.5
335 1 1 1.34212 3.62372e-06 2.16552 1 -44.0066 18.4145 4.5 -44.0066 18.4145 4.5
336 1 1 1.34212 3.62372e-06 2.16552 1 -44.0066 18.4145 5.5 -44.0066 18.4145 5.5
337 1 1 1.34212 3.62372e-06 2.16552 1 -44.0066 18.4145 6.5 -44.0066 18.4145 6.5
338 1 1 1.34212 3.62372e-06 2.16552 1 -44.0066 18.4145 7.5 -44.0066 18.4145 7.5
339 1 1 1.34212 3.62372e-06 2.16552 1 -44.0066 18.4145 8.5 -44.0066 18.4145 8.5
340 1 1 1.34212 3.62372e-06 2.16552 1 -44.0066 18.4145 9.5 -44.0066 18.4145 9.5
341 1 1 1.37242 3.70553e-06 1.93779 1 -21.357 17.1098 0.5 -21.357 17.1098 0.5
342 1 1 1.37242 3.70553e-06 1.93779 1 -21.357 17.1098 1.5 -21.357 17.1098 1.5
343 1 1 1.37242 3.70553e-06 1.93779 1 -21.357 17.1098 2.5 -21.357 17.1098 2.5
344 1 1 1.37242 3.70553e-06 1.93779 1 -21.357 17.1098 3.5 -21.357 17.1098 3.5
345 1 1 1.37242 3.70553e-06 1.93779 1 -21.357 17.1098 4.5 -21.357 17.1098 4.5
346 1 1 1.37242 3.70553e-06 1.93779 1 -21.357 17.1098 5.5 -21.357 17.1098 5.5
347 1 1 1.37242 3.70553e-06 1.93779 1 -21.357 17.1098 6.5 -21.357 17.1098 6.5
348 1 1 1.37242 3.70553e-06 1.93779 1 -21.357 17.1098 7.5 -21.357 17.1098 7.5
349 1 1 1.37242 3.70553e-06 1.93779 1 -21.357 17.1098 8.5 -21.357 17.1098 8.5
350 1 1 1.37242 3.70553e-06 1.93779 1 -21.357 17.1098 9.5 -21.357 17.1098 9.5
351 1 1 1.3495 3.64366e-06 1.9744 1 -69.4345 3.17855 0.5 -69.4345 3.17855 0.5
352 1 1 1.3495 3.64366e-06 1.9744 1 -69.4345 3.17855 1.5 -69.4345 3.17855 1.5
353 1 1 1.3495 3.64366e-06 1.9744 1 -69.4345 3.17855 2.5 -69.4345 3.17855 2.5
354 1 1 1.3495 3.64366e-06 1.9744 1 -69.4345 3.17855 3.5 -69.4345 3.17855 3.5
355 1 1 1.3495 3.64366e-06 1.9744 1 -69.4345 3.17855 4.5 -69.4345 3.17855 4.5
356 1 1 1.3495 3.64366e-06 1.9744 1 -69.4345 3.17855 5.5 -69.4345 3.17855 5.5
357 1 1 1.3495 3.64366e-06 1.9744 1 -69.4345 3.17855 6.5 -69.4345 3.17855 6.5
358 1 1 1.3495 3.64366e-06 1.9744 1 -69.4345 3.17855 7.5 -69.4345 3.17855 7.5
359 1 1 1.3495 3.64366e-06 1.9744 1 -69.4345 3.17855 8.5 -69.4345 3.17855 8.5
360 1 1 1.3495 3.64366e-06 1.9744 1 -69.4345 3.17855 9.5 -69.4345 3.17855 9.5
361 1 1 1.38745 3.74613e-06 1.94574 1 18.2342 7.68608 0.5 18.2342 7.68608 0.5
362 1 1 1.38745 3.74613e-06 1.94574 1 18.2342 7.68608 1.5 18.2342 7.68608 1.5
363 1 1 1.38745 3.74613e-06 1.94574 1 18.2342 7.68608 2.5 18.2342 7.68608 2.5
364 1 1 1.38745 3.74613e-06 1.94574 1 18.2342 7.68608 3.5 18.2342 7.68608 3.5
365 1 1 1.38745 3.74613e-06 1.94574 1 18.2342 7.68608 4.5 18.2342 7.68608 4.5
366 1 1 1.38745 3.74613e-06 1.94574 1 18.2342 7.68608 5.5 18.2342 7.68608 5.5
367 1 1 1.38745 3.74613e-06 1.94574 1 18.2342 7.68608 6.5 18.2342 7.68608 6.5
368 1 1 1.38745 3.74613e-06 1.94574 1 18.2342 7.68608 7.5 18.2342 7.68608 7.5
369 1 1 1.38745 3.74613e-06 1.94574 1 18.2342 7.68608 8.5 18.2342 7.68608 8.5
370 1 1 1.38745 3.74613e-06 1.94574 1 18.2342 7.68608 9.5 18.2342 7.68608 9.5
371 1 1 1.31264 3.54412e-06 1.9236 1 -61.2598 17.3661 0.5 -61.2598 17.3661 0.5
372 1 1 1.31264 3.54412e-06 1.9236 1 -61.2598 17.3661 1.5 -61.2598 17.3661 1.5
373 1 1 1.31264 3.54412e-06 1.9236 1 -61.2598 17.3661 2.5 -61.2598 17.3661 2.5
374 1 1 1.31264 3.54412e-06 1.9236 1 -61.2598 17.3661 3.5 -61.2598 17.3661 3.5
375 1 1 1.31264 3.54412e-06 1.9236 1 -61.2598 17.3661 4.5 -61.2598 17.3661 4.5
376 1 1 1.31264 3.54412e-06 1.9236 1 -61.2598 17.3661 5.5 -61.2598 17.3661 5.5
377 1 1 1.31264 3.54412e-06 1.9236 1 -61.2598 17.3661 6.5 -61.2598 17.3661 6.5
378 1 1 1.31264 3.54412e-06 1.9236 1 -61.2598 17.3661 7.5 -61.2598 17.3661 7.5
379 1 1 1.31264 3.54412e-06 1.9236 1 -61.2598 17.3661 8.5 -61.2598 17.3661 8.5
380 1 1 1.31264 3.54412e-06 1.9236 1 -61.2598 17.3661 9.5 -61.2598 17.3661 9.5