COMMENT
1238 atoms
2 atom types
-0.100000 82.200000 xlo xhi
-27.600000 32.700000 ylo yhi
-0.110000 0.110000 zlo zhi

Atoms

1 1 1 0.16792 1.30977e-06 0.556794 0.284131 1.82816 1.96418 0 1.82816 1.96418 0
2 1 1 0.239398 1.8673e-06 1.15209 0.310086 8.69525 4.76455 0 8.69525 4.76455 0
3 1 1 0.198734 1.55013e-06 0.648368 0.294813 11.2539 1.44314 0 11.2539 1.44314 0
4 1 1 0.278655 2.17351e-06 0.656118 0.360349 13.1014 1.55567 0 13.1014 1.55567 0
5 1 1 0.120415 9.39238e-07 0.645922 0.226745 14.1513 3.97182 0 14.1513 3.97182 0
6 1 1 0.284868 2.22197e-06 1.09434 0.363768 2.24165 4.72274 0 2.24165 4.72274 0
7 1 1 0.238265 1.85847e-06 0.699551 0.344048 11.9093 1.30668 0 11.9093 1.30668 0
8 1 1 0.220209 1.71763e-06 0.642191 0.325523 2.25416 1.84895 0 2.25416 1.84895 0
9 1 1 0.255263 1.99105e-06 1.16026 0.335871 12.7676 4.7664 0 12.7676 4.7664 0
10 1 1 0.234472 1.82888e-06 0.661868 0.309534 10.0949 3.81083 0 10.0949 3.81083 0
11 1 1 0.241053 1.88021e-06 1.12685 0.314605 9.20411 4.76362 0 9.20411 4.76362 0
12 1 1 0.253185 1.97485e-06 0.737345 0.348117 13.176 4.13256 0 13.176 4.13256 0
13 1 1 0.239834 1.8707e-06 1.26121 0.335445 16.7309 0.975933 0 16.7309 0.975933 0
14 1 1 0.20992 1.63737e-06 0.711989 0.280433 15.0198 1.26437 0 15.0198 1.26437 0
15 1 1 0.282158 2.20083e-06 1.05298 0.362758 4.68263 4.72533 0 4.68263 4.72533 0
16 1 1 0.188098 1.46716e-06 0.613705 0.300893 12.0513 1.91235 0 12.0513 1.91235 0
17 1 1 0.192516 1.50162e-06 0.684746 0.297386 3.59545 2.34724 0 3.59545 2.34724 0
18 1 1 0.198738 1.55015e-06 0.979372 0.284368 0.215598 2.79898 0 0.215598 2.79898 0
19 1 1 0.167971 1.31018e-06 0.704342 0.282095 3.24019 2.13704 0 3.24019 2.13704 0
20 1 1 0.292263 2.27965e-06 1.07653 0.376737 18.3629 2.44383 0 18.3629 2.44383 0
21 1 1 0.128118 9.9932e-07 1.02104 0.231568 18.3211 2.85903 0 18.3211 2.85903 0
22 1 1 0.260244 2.0299e-06 0.652697 0.315676 5.3832 1.67357 0 5.3832 1.67357 0
23 1 1 0.223642 1.74441e-06 1.16535 0.310886 10.7153 4.77267 0 10.7153 4.77267 0
24 1 1 0.196664 1.53398e-06 0.705454 0.310492 8.01139 2.66879 0 8.01139 2.66879 0
25 1 1 0.253171 1.97473e-06 0.710992 0.349137 7.13844 2.19667 0 7.13844 2.19667 0
26 1 1 0.236919 1.84797e-06 0.703407 0.320842 9.64183 2.74721 0 9.64183 2.74721 0
27 1 1 0.223952 1.74682e-06 0.734116 0.330628 11.4178 2.27068 0 11.4178 2.27068 0
28 1 1 0.211614 1.65059e-06 0.690593 0.304443 8.50174 1.91772 0 8.50174 1.91772 0
29 1 1 0.14198 1.10744e-06 0.7139 0.256605 6.83492 1.87943 0 6.83492 1.87943 0
30 1 1 0.180033 1.40426e-06 0.761858 0.290954 8.29953 0.821071 0 8.29953 0.821071 0
31 1 1 0.216548 1.68908e-06 0.694094 0.326641 15.0835 3.74875 0 15.0835 3.74875 0
32 1 1 0.244522 1.90727e-06 0.98393 0.348769 1.24896 4.26522 0 1.24896 4.26522 0
33 1 1 0.179676 1.40147e-06 0.691222 0.270739 9.96012 2.0786 0 9.96012 2.0786 0
34 1 1 0.218013 1.7005e-06 0.684591 0.327232 1.74706 3.79167 0 1.74706 3.79167 0
35 1 1 0.217995 1.70036e-06 0.748062 0.291457 13.9792 2.7524 0 13.9792 2.7524 0
36 1 1 0.242005 1.88764e-06 0.720678 0.337826 9.27345 0.833356 0 9.27345 0.833356 0
37 1 1 0.207796 1.62081e-06 1.07805 0.301454 7.22199 0.215103 0 7.22199 0.215103 0
38 1 1 0.285807 2.22929e-06 0.859984 0.380558 12.1897 0.940793 0 12.1897 0.940793 0
39 1 1 0.193547 1.50967e-06 0.676925 0.28273 6.96847 2.91455 0 6.96847 2.91455 0
40 1 1 0.255536 1.99318e-06 0.845244 0.262505 7.91851 0.562895 0 7.91851 0.562895 0
41 1 1 0.272414 2.12483e-06 1.06186 0.340572 18.1164 3.417 0 18.1164 3.417 0
42 1 1 0.263615 2.0562e-06 1.13386 0.347035 18.1047 1.5697 0 18.1047 1.5697 0
43 1 1 0.311369 2.42868e-06 0.691231 0.345081 5.41338 3.1148 0 5.41338 3.1148 0
44 1 1 0.23301 1.81747e-06 1.1388 0.336542 3.24909 4.7562 0 3.24909 4.7562 0
45 1 1 0.222068 1.73213e-06 0.616293 0.278899 3.20415 1.17438 0 3.20415 1.17438 0
46 1 1 0.117874 9.1942e-07 0.656002 0.232439 8.73112 3.07131 0 8.73112 3.07131 0
47 1 1 0.208208 1.62402e-06 0.59085 0.31708 1.87309 2.82859 0 1.87309 2.82859 0
48 1 1 0.300886 2.34691e-06 0.771473 0.366136 5.35024 2.24769 0 5.35024 2.24769 0
49 1 1 0.147385 1.14961e-06 0.81609 0.269628 7.28429 4.34456 0 7.28429 4.34456 0
50 1 1 0.188409 1.46959e-06 0.649674 0.275537 8.37532 1.3482 0 8.37532 1.3482 0
51 1 1 0.268671 2.09563e-06 1.12324 0.365186 11.2238 4.74678 0 11.2238 4.74678 0
52 1 1 0.174381 1.36017e-06 0.697584 0.287903 16.8454 2.08558 0 16.8454 2.08558 0
53 1 1 0.204121 1.59214e-06 0.650074 0.294568 8.0988 1.69728 0 8.0988 1.69728 0
54 1 1 0.223887 1.74632e-06 0.707411 0.316952 13.548 2.93352 0 13.548 2.93352 0
55 1 1 0.198176 1.54577e-06 0.638306 0.302995 7.43651 1.83024 0 7.43651 1.83024 0
56 1 1 0.322503 2.51553e-06 0.886233 0.393759 16.0495 1.33784 0 16.0495 1.33784 0
57 1 1 0.230538 1.7982e-06 1.1689 0.315426 10.2187 4.76978 0 10.2187 4.76978 0
58 1 1 0.238193 1.85791e-06 0.688346 0.304367 5.12986 1.29621 0 5.12986 1.29621 0
59 1 1 0.153231 1.1952e-06 0.593351 0.246971 14.1198 3.15895 0 14.1198 3.15895 0
60 1 1 0.221541 1.72802e-06 1.12262 0.314371 11.3344 0.229343 0 11.3344 0.229343 0
61 1 1 0.180953 1.41144e-06 0.830041 0.273616 11.0903 4.31128 0 11.0903 4.31128 0
62 1 1 0.285309 2.22541e-06 0.666021 0.354539 6.04141 3.51465 0 6.04141 3.51465 0
63 1 1 0.272221 2.12332e-06 0.724231 0.351176 11.4657 4.04895 0 11.4657 4.04895 0
64 1 1 0.415391 3.24005e-06 0.801206 0.452031 5.91134 2.27479 0 5.91134 2.27479 0
65 1 1 0.164675 1.28447e-06 0.651629 0.272359 11.7728 2.77348 0 11.7728 2.77348 0
66 1 1 0.24021 1.87364e-06 0.638995 0.3153 10.2577 1.53886 0 10.2577 1.53886 0
67 1 1 0.209025 1.6304e-06 0.774094 0.298435 13.9328 2.31278 0 13.9328 2.31278 0
68 1 1 0.193641 1.5104e-06 0.710841 0.310722 8.98308 2.77396 0 8.98308 2.77396 0
69 1 1 0.258457 2.01597e-06 1.87998 0.337842 19.7252 2.23399 0 19.7252 2.23399 0
70 1 1 0.268833 2.0969e-06 1.9015 0.349086 19.7252 2.75482 0 19.7252 2.75482 0
71 1 1 0.218985 1.70808e-06 0.573017 0.320153 7.02965 3.37561 0 7.02965 3.37561 0
72 1 1 0.210818 1.64438e-06 0.749149 0.310932 7.58043 0.911819 0 7.58043 0.911819 0
73 1 1 0.185808 1.4493e-06 0.624084 0.304023 4.94349 1.69244 0 4.94349 1.69244 0
74 1 1 0.168588 1.31498e-06 0.739328 0.290249 8.40088 2.86898 0 8.40088 2.86898 0
75 1 1 0.193083 1.50604e-06 0.596892 0.290306 7.70504 1.47995 0 7.70504 1.47995 0
76 1 1 0.216783 1.69091e-06 0.700293 0.294756 15.7696 1.75821 0 15.7696 1.75821 0
77 1 1 0.216159 1.68604e-06 0.817767 0.3368 8.75217 0.691205 0 8.75217 0.691205 0
78 1 1 0.214062 1.66969e-06 0.742339 0.313835 3.35816 2.74689 0 3.35816 2.74689 0
79 1 1 0.237719 1.85421e-06 0.693741 0.3221 2.32633 2.32473 0 2.32633 2.32473 0
80 1 1 0.26621 2.07643e-06 0.679403 0.353893 2.3411 2.846 0 2.3411 2.846 0
81 1 1 0.139478 1.08793e-06 0.580668 0.246973 4.99443 3.28777 0 4.99443 3.28777 0
82 1 1 0.179675 1.40146e-06 0.758676 0.260606 2.48822 4.01541 0 2.48822 4.01541 0
83 1 1 0.165323 1.28952e-06 0.734868 0.273826 6.29955 1.66648 0 6.29955 1.66648 0
84 1 1 0.15842 1.23567e-06 0.614243 0.268995 8.96377 3.35055 0 8.96377 3.35055 0
85 1 1 0.217958 1.70008e-06 1.01824 0.271479 6.94192 0.513815 0 6.94192 0.513815 0
86 1 1 0.333031 2.59764e-06 1.17556 0.343657 16.218 0.81097 0 16.218 0.81097 0
87 1 1 0.16128 1.25799e-06 0.558466 0.277994 2.49662 1.28476 0 2.49662 1.28476 0
88 1 1 0.168591 1.31501e-06 0.704464 0.286103 10.1382 1.13021 0 10.1382 1.13021 0
89 1 1 0.135355 1.05577e-06 0.774809 0.254811 4.20309 4.01163 0 4.20309 4.01163 0
90 1 1 0.418692 3.2658e-06 0.75215 0.445069 5.9753 2.92358 0 5.9753 2.92358 0
91 1 1 0.250291 1.95227e-06 0.923431 0.338932 6.43062 0.660468 0 6.43062 0.660468 0
92 1 1 0.254838 1.98774e-06 0.775605 0.346898 12.457 2.4507 0 12.457 2.4507 0
93 1 1 0.256815 2.00315e-06 0.678931 0.33825 9.30014 2.40879 0 9.30014 2.40879 0
94 1 1 0.172536 1.34578e-06 0.574785 0.293563 1.45578 2.77399 0 1.45578 2.77399 0
95 1 1 0.152391 1.18865e-06 1.23775 0.276455 6.772 0.173355 0 6.772 0.173355 0
96 1 1 0.175997 1.37278e-06 0.573156 0.261118 14.131 1.35509 0 14.131 1.35509 0
97 1 1 0.203751 1.58926e-06 0.618221 0.292277 8.77678 1.55688 0 8.77678 1.55688 0
98 1 1 0.226351 1.76554e-06 0.590388 0.287142 14.9479 2.03043 0 14.9479 2.03043 0
99 1 1 0.155172 1.21034e-06 0.508718 0.263138 2.12956 1.43657 0 2.12956 1.43657 0
100 1 1 0.22296 1.73909e-06 1.16652 0.315145 3.72793 4.76717 0 3.72793 4.76717 0
101 1 1 0.237086 1.84927e-06 1.25767 0.336539 0.239394 3.75332 0 0.239394 3.75332 0
102 1 1 0.26168 2.0411e-06 0.982169 0.300094 16.9026 1.43606 0 16.9026 1.43606 0
103 1 1 0.145953 1.13843e-06 0.60009 0.26281 11.1164 3.07503 0 11.1164 3.07503 0
104 1 1 0.160512 1.25199e-06 0.687202 0.279332 11.0279 2.70636 0 11.0279 2.70636 0
105 1 1 0.246807 1.92509e-06 1.10208 0.319262 0.248838 1.17164 0 0.248838 1.17164 0
106 1 1 0.235178 1.83439e-06 0.762314 0.314834 6.5255 2.92141 0 6.5255 2.92141 0
107 1 1 0.219478 1.71193e-06 1.08523 0.306557 17.6601 1.34426 0 17.6601 1.34426 0
108 1 1 0.286661 2.23595e-06 0.978707 0.364956 17.6265 3.61736 0 17.6265 3.61736 0
109 1 1 0.227656 1.77572e-06 0.742956 0.334054 16.0554 3.2095 0 16.0554 3.2095 0
110 1 1 0.120744 9.41804e-07 0.682161 0.238092 11.4145 2.66654 0 11.4145 2.66654 0
111 1 1 0.222313 1.73404e-06 1.66532 0.314402 0.236703 0.23561 0 0.236703 0.23561 0
112 1 1 0.273878 2.13625e-06 0.947886 0.320477 11.6901 0.604525 0 11.6901 0.604525 0
113 1 1 0.22157 1.72825e-06 1.19722 0.322759 16.6362 4.07845 0 16.6362 4.07845 0
114 1 1 0.240474 1.87569e-06 1.3093 0.346208 1.24897 4.75697 0 1.24897 4.75697 0
115 1 1 0.288643 2.25142e-06 1.06252 0.35868 5.75727 4.71782 0 5.75727 4.71782 0
116 1 1 0.210971 1.64558e-06 0.859902 0.300134 16.9068 3.38865 0 16.9068 3.38865 0
117 1 1 0.216422 1.68809e-06 0.611966 0.300536 14.7487 1.61123 0 14.7487 1.61123 0
118 1 1 0.13481 1.05152e-06 0.534011 0.235904 4.9601 3.63358 0 4.9601 3.63358 0
119 1 1 0.131875 1.02862e-06 0.773673 0.236407 2.0587 0.604119 0 2.0587 0.604119 0
120 1 1 0.259405 2.02336e-06 1.16475 0.331279 12.3151 0.245289 0 12.3151 0.245289 0
121 1 1 0.243056 1.89584e-06 0.920849 0.317211 15.5795 1.05687 0 15.5795 1.05687 0
122 1 1 0.282976 2.20722e-06 0.500765 0.345168 16.9998 2.72441 0 16.9998 2.72441 0
123 1 1 0.205217 1.60069e-06 0.996269 0.278442 2.18411 0.216775 0 2.18411 0.216775 0
124 1 1 0.158548 1.23668e-06 0.955641 0.263563 0.680206 0.968008 0 0.680206 0.968008 0
125 1 1 0.251638 1.96278e-06 0.588485 0.341563 1.33736 3.22536 0 1.33736 3.22536 0
126 1 1 0.163985 1.27908e-06 0.623702 0.2678 3.04693 1.58742 0 3.04693 1.58742 0
127 1 1 0.274465 2.14082e-06 0.654256 0.350479 6.55448 3.44187 0 6.55448 3.44187 0
128 1 1 0.290596 2.26665e-06 0.824824 0.332553 8.58071 4.26712 0 8.58071 4.26712 0
129 1 1 0.205777 1.60506e-06 0.692985 0.316324 10.4033 1.97125 0 10.4033 1.97125 0
130 1 1 0.367537 2.86679e-06 0.912044 0.380754 5.26464 0.813792 0 5.26464 0.813792 0
131 1 1 0.253385 1.9764e-06 0.606297 0.346252 12.0677 3.10507 0 12.0677 3.10507 0
132 1 1 0.222086 1.73227e-06 1.04828 0.277322 7.7137 0.222689 0 7.7137 0.222689 0
133 1 1 0.307059 2.39506e-06 0.854788 0.373053 16.4932 1.71479 0 16.4932 1.71479 0
134 1 1 0.236609 1.84555e-06 0.80386 0.308867 0.249148 2.34304 0 0.249148 2.34304 0
135 1 1 0.123098 9.60167e-07 0.568249 0.230895 8.60061 3.36775 0 8.60061 3.36775 0
136 1 1 0.251351 1.96054e-06 1.57431 0.351002 0.249571 4.25283 0 0.249571 4.25283 0
137 1 1 0.182754 1.42548e-06 0.548861 0.287683 13.5854 3.89148 0 13.5854 3.89148 0
138 1 1 0.175053 1.36541e-06 0.694115 0.265937 4.6548 1.16207 0 4.6548 1.16207 0
139 1 1 0.222492 1.73544e-06 0.652469 0.285823 15.3949 1.9414 0 15.3949 1.9414 0
140 1 1 0.177864 1.38734e-06 0.561097 0.292204 3.7983 1.95532 0 3.7983 1.95532 0
141 1 1 0.262941 2.05094e-06 0.732479 0.340873 13.4706 2.19645 0 13.4706 2.19645 0
142 1 1 0.271197 2.11534e-06 0.689818 0.33731 2.71983 3.57583 0 2.71983 3.57583 0
143 1 1 0.28983 2.26067e-06 1.12778 0.315749 10.8267 0.259668 0 10.8267 0.259668 0
144 1 1 0.258759 2.01832e-06 1.17966 0.348186 10.2685 0.237466 0 10.2685 0.237466 0
145 1 1 0.165838 1.29354e-06 0.673825 0.268592 6.56942 3.90593 0 6.56942 3.90593 0
146 1 1 0.153807 1.19969e-06 0.642548 0.27226 0.673401 1.607 0 0.673401 1.607 0
147 1 1 0.151901 1.18483e-06 0.652248 0.241485 4.46709 2.16892 0 4.46709 2.16892 0
148 1 1 0.193295 1.5077e-06 0.711242 0.294081 5.17805 4.15605 0 5.17805 4.15605 0
149 1 1 0.264483 2.06297e-06 0.756624 0.330708 9.58855 3.79828 0 9.58855 3.79828 0
150 1 1 0.259131 2.02122e-06 0.77923 0.306739 7.11832 0.920346 0 7.11832 0.920346 0
151 1 1 0.234389 1.82823e-06 0.679136 0.327056 10.0578 2.51089 0 10.0578 2.51089 0
152 1 1 0.252651 1.97068e-06 0.642186 0.35089 10.7635 1.43869 0 10.7635 1.43869 0
153 1 1 0.375528 2.92912e-06 0.88478 0.413457 5.87207 0.804777 0 5.87207 0.804777 0
154 1 1 0.259177 2.02158e-06 1.06989 0.358953 6.72857 4.74315 0 6.72857 4.74315 0
155 1 1 0.168185 1.31184e-06 0.782287 0.272634 4.48938 4.27799 0 4.48938 4.27799 0
156 1 1 0.252975 1.97321e-06 0.865572 0.337197 10.8455 0.742922 0 10.8455 0.742922 0
157 1 1 0.267721 2.08822e-06 1.19318 0.348631 5.78513 0.252591 0 5.78513 0.252591 0
158 1 1 0.129166 1.0075e-06 0.712373 0.245237 0.605257 2.88832 0 0.605257 2.88832 0
159 1 1 0.18722 1.46032e-06 0.830534 0.292431 14.2617 4.29608 0 14.2617 4.29608 0
160 1 1 0.235441 1.83644e-06 0.587653 0.335438 3.64726 1.34343 0 3.64726 1.34343 0
161 1 1 0.195517 1.52503e-06 0.601519 0.27519 12.3177 1.61512 0 12.3177 1.61512 0
162 1 1 0.215378 1.67995e-06 0.604761 0.316213 12.2955 3.52193 0 12.2955 3.52193 0
163 1 1 0.241688 1.88516e-06 0.671015 0.327922 3.99127 2.55616 0 3.99127 2.55616 0
164 1 1 0.297814 2.32295e-06 0.680797 0.381636 3.74727 3.03539 0 3.74727 3.03539 0
165 1 1 0.138391 1.07945e-06 0.756686 0.238674 12.1154 4.07951 0 12.1154 4.07951 0
166 1 1 0.168907 1.31747e-06 0.86232 0.254976 0.650392 3.26346 0 0.650392 3.26346 0
167 1 1 0.232392 1.81266e-06 0.781409 0.328544 14.7108 4.08918 0 14.7108 4.08918 0
168 1 1 0.163736 1.27714e-06 0.804438 0.258487 9.96367 0.788283 0 9.96367 0.788283 0
169 1 1 0.16545 1.29051e-06 0.75332 0.266065 6.15575 3.966 0 6.15575 3.966 0
170 1 1 0.214344 1.67188e-06 1.22295 0.288039 17.1921 1.14481 0 17.1921 1.14481 0
171 1 1 0.218782 1.7065e-06 1.07747 0.301675 8.19833 4.77741 0 8.19833 4.77741 0
172 1 1 0.283066 2.20792e-06 1.01006 0.36821 0.736382 3.7332 0 0.736382 3.7332 0
173 1 1 0.236947 1.84819e-06 0.608607 0.339676 16.5727 2.42499 0 16.5727 2.42499 0
174 1 1 0.207204 1.61619e-06 0.593843 0.303895 9.17893 1.78518 0 9.17893 1.78518 0
175 1 1 0.484165 3.77648e-06 1.38857 0.478287 18.6027 1.88802 0 18.6027 1.88802 0
176 1 1 0.221167 1.7251e-06 1.29725 0.279615 18.5609 3.24072 0 18.5609 3.24072 0
177 1 1 0.238643 1.86142e-06 0.89498 0.313029 3.70377 4.28411 0 3.70377 4.28411 0
178 1 1 0.26385 2.05803e-06 0.626251 0.341444 15.8716 2.54507 0 15.8716 2.54507 0
179 1 1 0.283886 2.21431e-06 1.05893 0.335091 3.21668 0.261827 0 3.21668 0.261827 0
180 1 1 0.226486 1.76659e-06 1.25318 0.314633 6.30185 0.218901 0 6.30185 0.218901 0
181 1 1 0.200475 1.56371e-06 0.896044 0.287632 3.24962 4.27941 0 3.24962 4.27941 0
182 1 1 0.277322 2.16311e-06 1.01722 0.348857 2.6807 0.256117 0 2.6807 0.256117 0
183 1 1 0.189799 1.48043e-06 0.604633 0.25441 2.66761 1.65478 0 2.66761 1.65478 0
184 1 1 0.187896 1.46559e-06 0.549506 0.302345 3.42943 1.7512 0 3.42943 1.7512 0
185 1 1 0.295199 2.30255e-06 0.680739 0.373756 16.1448 2.11093 0 16.1448 2.11093 0
186 1 1 0.247942 1.93395e-06 0.757928 0.299333 6.08741 1.28698 0 6.08741 1.28698 0
187 1 1 0.125521 9.79063e-07 0.816694 0.240269 7.65368 4.40516 0 7.65368 4.40516 0
188 1 1 0.209191 1.63169e-06 0.608157 0.298573 5.56208 3.61627 0 5.56208 3.61627 0
189 1 1 0.266726 2.08046e-06 0.561903 0.348258 2.27937 3.3794 0 2.27937 3.3794 0
190 1 1 0.28346 2.21099e-06 1.04545 0.330838 13.7935 0.271581 0 13.7935 0.271581 0
191 1 1 0.178861 1.39511e-06 0.68163 0.29322 1.88453 2.37839 0 1.88453 2.37839 0
192 1 1 0.175656 1.37012e-06 0.703853 0.291326 15.0598 2.47563 0 15.0598 2.47563 0
193 1 1 0.250479 1.95373e-06 0.754485 0.347496 13.7924 0.781075 0 13.7924 0.781075 0
194 1 1 0.220695 1.72142e-06 1.26034 0.317157 16.1835 4.27038 0 16.1835 4.27038 0
195 1 1 0.183727 1.43307e-06 0.745556 0.247303 10.5717 1.02624 0 10.5717 1.02624 0
196 1 1 0.284032 2.21545e-06 0.694693 0.37371 3.03405 3.13899 0 3.03405 3.13899 0
197 1 1 0.269509 2.10217e-06 0.862151 0.359639 10.1733 4.29159 0 10.1733 4.29159 0
198 1 1 0.226233 1.76462e-06 0.610158 0.332377 16.3022 2.80787 0 16.3022 2.80787 0
199 1 1 0.193636 1.51036e-06 0.684671 0.309323 10.5111 2.39096 0 10.5111 2.39096 0
200 1 1 0.199622 1.55705e-06 0.816481 0.295257 13.311 0.682334 0 13.311 0.682334 0
201 1 1 0.151944 1.18516e-06 0.77396 0.265725 1.67472 0.650195 0 1.67472 0.650195 0
202 1 1 0.256761 2.00273e-06 0.77894 0.304938 6.75491 2.52719 0 6.75491 2.52719 0
203 1 1 0.213145 1.66253e-06 0.702409 0.3109 8.89985 2.14988 0 8.89985 2.14988 0
204 1 1 0.195551 1.5253e-06 0.702109 0.289855 12.4876 1.99066 0 12.4876 1.99066 0
205 1 1 0.238377 1.85934e-06 0.529208 0.34234 13.5948 1.70889 0 13.5948 1.70889 0
206 1 1 0.407267 3.17668e-06 1.80052 0.442388 19.1902 2.11191 0 19.1902 2.11191 0
207 1 1 0.454402 3.54433e-06 1.79257 0.482665 19.1902 2.84108 0 19.1902 2.84108 0
208 1 1 0.10687 8.33583e-07 0.666881 0.210347 5.25663 3.79954 0 5.25663 3.79954 0
209 1 1 0.284507 2.21916e-06 1.17934 0.360579 2.75391 4.72282 0 2.75391 4.72282 0
210 1 1 0.143549 1.11968e-06 0.585923 0.22197 2.19644 1.08282 0 2.19644 1.08282 0
211 1 1 0.192403 1.50074e-06 0.638668 0.290919 11.6656 1.65676 0 11.6656 1.65676 0
212 1 1 0.163009 1.27147e-06 0.703591 0.265896 16.6757 3.05727 0 16.6757 3.05727 0
213 1 1 0.196343 1.53148e-06 0.741575 0.301291 8.62897 2.51547 0 8.62897 2.51547 0
214 1 1 0.160332 1.25059e-06 0.602279 0.273062 1.0761 2.66094 0 1.0761 2.66094 0
215 1 1 0.159558 1.24455e-06 0.641232 0.246721 0.936533 3.04947 0 0.936533 3.04947 0
216 1 1 0.156757 1.2227e-06 0.596006 0.277613 9.64602 3.36218 0 9.64602 3.36218 0
217 1 1 0.204919 1.59837e-06 0.635238 0.307195 12.7291 3.33594 0 12.7291 3.33594 0
218 1 1 0.15572 1.21461e-06 0.772461 0.274393 2.73992 2.33212 0 2.73992 2.33212 0
219 1 1 0.183461 1.431e-06 0.679645 0.285897 9.5612 2.01888 0 9.5612 2.01888 0
220 1 1 0.263935 2.0587e-06 0.73146 0.340856 12.9722 2.03822 0 12.9722 2.03822 0
221 1 1 0.11519 8.98482e-07 0.799459 0.232286 14.6994 0.999469 0 14.6994 0.999469 0
222 1 1 0.16748 1.30635e-06 0.699401 0.262314 6.70241 1.53826 0 6.70241 1.53826 0
223 1 1 0.213928 1.66864e-06 0.659378 0.30987 7.82823 2.06585 0 7.82823 2.06585 0
224 1 1 0.160212 1.24965e-06 0.649326 0.282899 13.8628 4.19963 0 13.8628 4.19963 0
225 1 1 0.198912 1.55151e-06 1.09094 0.295065 7.72108 4.78739 0 7.72108 4.78739 0
226 1 1 0.2431 1.89618e-06 0.856359 0.319156 12.6952 4.31701 0 12.6952 4.31701 0
227 1 1 0.214129 1.67021e-06 0.741014 0.269969 3.96169 0.991287 0 3.96169 0.991287 0
228 1 1 0.160425 1.25131e-06 0.648105 0.265171 4.28635 1.27405 0 4.28635 1.27405 0
229 1 1 0.149405 1.16536e-06 0.880668 0.259437 14.456 0.711396 0 14.456 0.711396 0
230 1 1 0.254546 1.98546e-06 1.23382 0.352664 0.751165 4.2593 0 0.751165 4.2593 0
231 1 1 0.221996 1.73157e-06 1.17271 0.320852 3.73889 0.224688 0 3.73889 0.224688 0
232 1 1 0.126161 9.84059e-07 0.621641 0.238614 4.13092 2.13439 0 4.13092 2.13439 0
233 1 1 0.206904 1.61385e-06 1.16537 0.283297 12.8072 0.220812 0 12.8072 0.220812 0
234 1 1 0.190102 1.48279e-06 1.11281 0.306714 9.29588 0.198869 0 9.29588 0.198869 0
235 1 1 0.205897 1.60599e-06 0.608774 0.304375 10.867 1.89016 0 10.867 1.89016 0
236 1 1 0.30383 2.36987e-06 0.612201 0.358727 3.41885 3.50437 0 3.41885 3.50437 0
237 1 1 0.24465 1.90827e-06 1.12642 0.321569 1.18336 0.242645 0 1.18336 0.242645 0
238 1 1 0.108706 8.47906e-07 0.604563 0.233057 7.41152 3.30395 0 7.41152 3.30395 0
239 1 1 0.309163 2.41147e-06 1.12729 0.362431 17.1102 3.83093 0 17.1102 3.83093 0
240 1 1 0.209376 1.63313e-06 0.660671 0.320655 15.6532 2.97953 0 15.6532 2.97953 0
241 1 1 0.258519 2.01645e-06 0.591568 0.352458 14.0667 1.82929 0 14.0667 1.82929 0
242 1 1 0.311891 2.43275e-06 0.79281 0.35759 17.8764 2.92516 0 17.8764 2.92516 0
243 1 1 0.152272 1.18772e-06 0.515256 0.271853 10.7351 3.17521 0 10.7351 3.17521 0
244 1 1 0.273219 2.13111e-06 1.23046 0.361144 5.25632 0.257551 0 5.25632 0.257551 0
245 1 1 0.115588 9.01584e-07 0.642996 0.223591 11.4788 2.98047 0 11.4788 2.98047 0
246 1 1 0.195904 1.52805e-06 0.599496 0.308868 10.5314 3.68684 0 10.5314 3.68684 0
247 1 1 0.203871 1.59019e-06 1.09179 0.317211 8.20738 0.208979 0 8.20738 0.208979 0
248 1 1 0.187104 1.45941e-06 0.878206 0.276325 3.74286 0.656136 0 3.74286 0.656136 0
249 1 1 0.210227 1.63977e-06 0.598426 0.31133 12.9358 3.72938 0 12.9358 3.72938 0
250 1 1 0.160213 1.24966e-06 0.995733 0.256324 0.989732 0.664014 0 0.989732 0.664014 0
251 1 1 0.131149 1.02296e-06 0.775216 0.233781 3.05129 2.489 0 3.05129 2.489 0
252 1 1 0.212387 1.65662e-06 1.17787 0.26169 11.8067 0.222613 0 11.8067 0.222613 0
253 1 1 0.206113 1.60768e-06 0.753917 0.305454 3.08557 3.88821 0 3.08557 3.88821 0
254 1 1 0.187748 1.46443e-06 0.643406 0.298073 13.1452 3.15478 0 13.1452 3.15478 0
255 1 1 0.274887 2.14412e-06 0.912617 0.358446 4.67947 0.719789 0 4.67947 0.719789 0
256 1 1 0.208072 1.62296e-06 0.705921 0.306063 8.2362 2.28893 0 8.2362 2.28893 0
257 1 1 0.215939 1.68432e-06 0.607756 0.316525 13.7025 1.24545 0 13.7025 1.24545 0
258 1 1 0.144158 1.12443e-06 0.701669 0.229958 8.62878 1.03139 0 8.62878 1.03139 0
259 1 1 0.264571 2.06365e-06 1.11861 0.353805 14.2998 0.268125 0 14.2998 0.268125 0
260 1 1 0.267452 2.08612e-06 0.661388 0.310804 5.86117 1.66993 0 5.86117 1.66993 0
261 1 1 0.174768 1.36319e-06 0.656044 0.288003 9.82848 1.70707 0 9.82848 1.70707 0
262 1 1 0.289546 2.25846e-06 0.762239 0.362624 1.25659 3.74167 0 1.25659 3.74167 0
263 1 1 0.208666 1.62759e-06 1.10969 0.322606 12.2516 4.78397 0 12.2516 4.78397 0
264 1 1 0.363946 2.83878e-06 1.018 0.40717 5.216 4.68267 0 5.216 4.68267 0
265 1 1 0.195389 1.52404e-06 0.654453 0.282862 7.98269 1.1376 0 7.98269 1.1376 0
266 1 1 0.179315 1.39866e-06 0.84315 0.276019 2.17151 4.24069 0 2.17151 4.24069 0
267 1 1 0.136535 1.06498e-06 0.902233 0.257271 12.2392 4.39676 0 12.2392 4.39676 0
268 1 1 0.286956 2.23826e-06 0.83364 0.373885 15.7927 3.65209 0 15.7927 3.65209 0
269 1 1 0.241383 1.88279e-06 1.2484 0.343425 1.74098 4.75344 0 1.74098 4.75344 0
270 1 1 0.227274 1.77273e-06 0.631426 0.311796 9.30515 3.09768 0 9.30515 3.09768 0
271 1 1 0.245073 1.91157e-06 0.721469 0.31993 12.5353 2.91567 0 12.5353 2.91567 0
272 1 1 0.143312 1.11783e-06 0.774934 0.259239 12.9171 2.46548 0 12.9171 2.46548 0
273 1 1 0.222796 1.73781e-06 0.899434 0.330631 1.72785 4.26796 0 1.72785 4.26796 0
274 1 1 0.136509 1.06477e-06 0.761208 0.261766 12.8464 0.948743 0 12.8464 0.948743 0
275 1 1 0.194527 1.51731e-06 0.706987 0.288149 0.924528 1.24468 0 0.924528 1.24468 0
276 1 1 0.193168 1.50671e-06 0.742854 0.265532 6.93697 4.07959 0 6.93697 4.07959 0
277 1 1 0.254248 1.98313e-06 1.04913 0.287897 16.2666 3.84006 0 16.2666 3.84006 0
278 1 1 0.206295 1.6091e-06 1.23093 0.311146 14.7768 4.77311 0 14.7768 4.77311 0
279 1 1 0.204335 1.59381e-06 0.59114 0.313201 4.49939 3.0832 0 4.49939 3.0832 0
280 1 1 0.278081 2.16903e-06 1.19745 0.347036 15.6748 4.46106 0 15.6748 4.46106 0
281 1 1 0.254605 1.98592e-06 0.696865 0.354401 3.8276 3.8044 0 3.8276 3.8044 0
282 1 1 0.180933 1.41128e-06 0.853262 0.260164 10.665 4.33653 0 10.665 4.33653 0
283 1 1 0.260542 2.03223e-06 0.722202 0.335587 7.56524 2.46959 0 7.56524 2.46959 0
284 1 1 0.210619 1.64283e-06 1.09309 0.306248 0.22143 3.26706 0 0.22143 3.26706 0
285 1 1 0.312183 2.43503e-06 1.01623 0.39769 8.75522 0.249503 0 8.75522 0.249503 0
286 1 1 0.279678 2.18149e-06 0.66723 0.357698 14.7074 2.7911 0 14.7074 2.7911 0
287 1 1 0.258719 2.01801e-06 0.604003 0.329631 4.12274 3.37029 0 4.12274 3.37029 0
288 1 1 0.241079 1.88042e-06 0.817525 0.312387 3.25312 0.742573 0 3.25312 0.742573 0
289 1 1 0.19262 1.50243e-06 0.769893 0.255918 0.436966 1.95555 0 0.436966 1.95555 0
290 1 1 0.292092 2.27832e-06 0.735419 0.341708 11.9273 2.35535 0 11.9273 2.35535 0
291 1 1 0.268385 2.0934e-06 0.779137 0.345987 6.59748 1.11305 0 6.59748 1.11305 0
292 1 1 0.185651 1.44808e-06 0.905311 0.29089 4.18342 0.645041 0 4.18342 0.645041 0
293 1 1 0.216878 1.69165e-06 0.691796 0.3072 7.41664 2.9118 0 7.41664 2.9118 0
294 1 1 0.303925 2.37061e-06 1.08326 0.3785 14.2591 4.74226 0 14.2591 4.74226 0
295 1 1 0.114423 8.92497e-07 0.590649 0.22595 4.68975 3.43193 0 4.68975 3.43193 0
296 1 1 0.223346 1.7421e-06 1.12795 0.327146 6.24511 4.76032 0 6.24511 4.76032 0
297 1 1 0.139107 1.08504e-06 1.72949 0.238925 20.1706 2.34252 0 20.1706 2.34252 0
298 1 1 0.140618 1.09682e-06 1.77404 0.239875 20.1706 2.65502 0 20.1706 2.65502 0
299 1 1 0.244024 1.90339e-06 1.58532 0.349056 0.751666 4.75592 0 0.751666 4.75592 0
300 1 1 0.187427 1.46193e-06 0.692626 0.299796 10.9529 2.30992 0 10.9529 2.30992 0
301 1 1 0.217099 1.69338e-06 0.925518 0.253997 0.25073 1.63868 0 0.25073 1.63868 0
302 1 1 0.247922 1.93379e-06 1.0599 0.318767 7.23305 4.75385 0 7.23305 4.75385 0
303 1 1 0.107879 8.41454e-07 0.531599 0.224061 14.2507 3.47988 0 14.2507 3.47988 0
304 1 1 0.279009 2.17627e-06 0.926275 0.350721 15.4225 4.06692 0 15.4225 4.06692 0
305 1 1 0.161298 1.25812e-06 0.629455 0.242198 10.8098 4.00743 0 10.8098 4.00743 0
306 1 1 0.181634 1.41674e-06 0.629698 0.252632 11.3258 1.84474 0 11.3258 1.84474 0
307 1 1 0.108961 8.49896e-07 0.553759 0.224016 1.51628 2.39602 0 1.51628 2.39602 0
308 1 1 0.391791 3.05597e-06 0.774891 0.416606 17.7786 2.35144 0 17.7786 2.35144 0
309 1 1 0.174932 1.36447e-06 0.549233 0.295676 4.02067 1.59373 0 4.02067 1.59373 0
310 1 1 0.238312 1.85883e-06 1.16771 0.319666 9.71359 4.7656 0 9.71359 4.7656 0
311 1 1 0.187494 1.46245e-06 0.432632 0.283726 1.72612 1.5664 0 1.72612 1.5664 0
312 1 1 0.178458 1.39197e-06 0.918002 0.261089 10.3607 0.663203 0 10.3607 0.663203 0
313 1 1 0.282503 2.20353e-06 0.867221 0.308163 17.6787 1.79171 0 17.6787 1.79171 0
314 1 1 0.183737 1.43315e-06 0.564253 0.294952 14.7724 3.45453 0 14.7724 3.45453 0
315 1 1 0.215878 1.68385e-06 1.20576 0.317707 4.23125 0.220073 0 4.23125 0.220073 0
316 1 1 0.163933 1.27868e-06 0.800133 0.27684 13.2794 2.60034 0 13.2794 2.60034 0
317 1 1 0.151076 1.17839e-06 0.552956 0.269491 13.9423 3.67702 0 13.9423 3.67702 0
318 1 1 0.153385 1.1964e-06 0.570719 0.245362 14.4639 3.19757 0 14.4639 3.19757 0
319 1 1 0.168015 1.31052e-06 0.589443 0.280257 4.43206 3.701 0 4.43206 3.701 0
320 1 1 0.234636 1.83016e-06 0.740913 0.323238 14.3385 2.47757 0 14.3385 2.47757 0
321 1 1 0.175987 1.3727e-06 0.650428 0.255494 7.32933 1.26501 0 7.32933 1.26501 0
322 1 1 0.179654 1.4013e-06 0.708865 0.294023 5.17534 2.71355 0 5.17534 2.71355 0
323 1 1 0.191674 1.49505e-06 1.04262 0.2971 13.2726 4.79685 0 13.2726 4.79685 0
324 1 1 0.225171 1.75634e-06 1.08734 0.303449 13.2849 0.232989 0 13.2849 0.232989 0
325 1 1 0.242947 1.89499e-06 1.09713 0.291047 1.68866 0.240031 0 1.68866 0.240031 0
326 1 1 0.268893 2.09736e-06 1.2191 0.323014 15.7032 0.568386 0 15.7032 0.568386 0
327 1 1 0.24176 1.88573e-06 0.616207 0.297381 14.5184 2.00189 0 14.5184 2.00189 0
328 1 1 0.240083 1.87265e-06 1.35349 0.312679 18.6969 2.86198 0 18.6969 2.86198 0
329 1 1 0.181503 1.41572e-06 0.746261 0.277188 2.77213 2.7509 0 2.77213 2.7509 0
330 1 1 0.144859 1.1299e-06 0.708271 0.264008 5.52266 4.00888 0 5.52266 4.00888 0
331 1 1 0.175377 1.36794e-06 0.716321 0.288141 9.7175 1.06567 0 9.7175 1.06567 0
332 1 1 0.148477 1.15812e-06 0.694196 0.263271 2.15698 3.83983 0 2.15698 3.83983 0
333 1 1 0.10977 8.56205e-07 0.52768 0.234246 10.87 3.50585 0 10.87 3.50585 0
334 1 1 0.262292 2.04588e-06 0.730803 0.353002 12.6301 1.29974 0 12.6301 1.29974 0
335 1 1 0.187652 1.46369e-06 0.855238 0.303598 2.83582 4.24051 0 2.83582 4.24051 0
336 1 1 0.207024 1.61479e-06 0.509816 0.296201 8.08367 3.6009 0 8.08367 3.6009 0
337 1 1 0.174588 1.36178e-06 0.66042 0.286415 0.695799 2.51244 0 0.695799 2.51244 0
338 1 1 0.203727 1.58907e-06 0.633144 0.295657 9.03506 1.20249 0 9.03506 1.20249 0
339 1 1 0.218036 1.70068e-06 0.537608 0.321449 11.6286 3.33822 0 11.6286 3.33822 0
340 1 1 0.227944 1.77797e-06 0.799918 0.292439 2.46427 0.715081 0 2.46427 0.715081 0
341 1 1 0.122533 9.55759e-07 0.959794 0.211767 14.7915 0.68544 0 14.7915 0.68544 0
342 1 1 0.140513 1.096e-06 0.567634 0.245942 4.33466 1.83581 0 4.33466 1.83581 0
343 1 1 0.203008 1.58346e-06 0.850184 0.301972 5.85844 4.22802 0 5.85844 4.22802 0
344 1 1 0.130825 1.02044e-06 0.937509 0.222024 12.8937 0.618796 0 12.8937 0.618796 0
345 1 1 0.245288 1.91325e-06 1.19993 0.348408 4.7336 0.237356 0 4.7336 0.237356 0
346 1 1 0.22926 1.78823e-06 1.16267 0.31728 14.7696 0.25187 0 14.7696 0.25187 0
347 1 1 0.193184 1.50683e-06 0.585086 0.292137 0.857444 2.12094 0 0.857444 2.12094 0
348 1 1 0.192966 1.50514e-06 0.902568 0.275455 15.1598 0.835466 0 15.1598 0.835466 0
349 1 1 0.20882 1.62879e-06 0.754503 0.308625 17.1867 1.86645 0 17.1867 1.86645 0
350 1 1 0.215664 1.68218e-06 0.647124 0.3268 15.3957 3.37695 0 15.3957 3.37695 0
351 1 1 0.1198 9.34443e-07 0.668472 0.241001 4.87138 2.94247 0 4.87138 2.94247 0
352 1 1 0.132642 1.0346e-06 0.733365 0.238014 4.8338 2.59593 0 4.8338 2.59593 0
353 1 1 0.246323 1.92132e-06 0.881342 0.326078 9.64258 4.29339 0 9.64258 4.29339 0
354 1 1 0.247186 1.92805e-06 0.599839 0.34864 8.54861 3.77007 0 8.54861 3.77007 0
355 1 1 0.117209 9.1423e-07 0.729745 0.219725 7.49444 4.09914 0 7.49444 4.09914 0
356 1 1 0.180006 1.40405e-06 1.0002 0.266985 12.5236 0.675675 0 12.5236 0.675675 0
357 1 1 0.196759 1.53472e-06 0.570232 0.306986 13.3529 3.53187 0 13.3529 3.53187 0
358 1 1 0.154337 1.20383e-06 0.680467 0.257898 2.89346 1.95506 0 2.89346 1.95506 0
359 1 1 0.20376 1.58933e-06 1.46645 0.287854 0.70575 0.219561 0 0.70575 0.219561 0
360 1 1 0.205191 1.60049e-06 1.43881 0.287198 0.222744 0.701662 0 0.222744 0.701662 0
361 1 1 0.123745 9.65213e-07 0.625027 0.24387 9.87501 3.09133 0 9.87501 3.09133 0
362 1 1 0.167552 1.30691e-06 0.617916 0.289345 10.2196 2.92499 0 10.2196 2.92499 0
363 1 1 0.21674 1.69057e-06 1.11327 0.298851 4.20179 4.76907 0 4.20179 4.76907 0