COMMENT
4 atoms
1 atom types
-1 2 xlo xhi
-1 2 1.000000 ylo yhi
-0.100000 0.100000 zlo zhi

Atoms

1 1 1 0.166667 4.5e-07 0.979796 0.408248 0 0 0 0 0 0
2 1 1 0.333333 9e-07 1.38564 0.57735 0 1 0 0 1 0
3 1 1 0.333333 9e-07 1.38564 0.57735 1 0 0 1 0 0
4 1 1 0.166667 4.5e-07 0.979796 0.408248 1 1 0 1 1 0

Velocities

1 0.000000 0.000000 0.000000
2 0.000000 0.000000 0.000000
3 0.000000 0.000000 0.000000
4 0.000000 0.000000 0.000000

