COMMENT
600 atoms
1 atom types
0.000000 200.000000 xlo xhi
0.000000 20.000000 ylo yhi
0.000000 2.000000 zlo zhi

Atoms

1 1 1 10 2.7e-05 5.38516 2 2.5 19 0 2.5 19 0
2 1 1 10 2.7e-05 5.38516 2 2.5 15 0 2.5 15 0
3 1 1 10 2.7e-05 5.38516 2 2.5 11 0 2.5 11 0
4 1 1 10 2.7e-05 5.38516 2 2.5 7 0 2.5 7 0
5 1 1 10 2.7e-05 5.38516 2 2.5 3 0 2.5 3 0
6 1 1 10 2.7e-05 5.38516 2 12.5 19 0 12.5 19 0
7 1 1 10 2.7e-05 5.38516 2 12.5 15 0 12.5 15 0
8 1 1 10 2.7e-05 5.38516 2 12.5 11 0 12.5 11 0
9 1 1 10 2.7e-05 5.38516 2 12.5 7 0 12.5 7 0
10 1 1 10 2.7e-05 5.38516 2 12.5 3 0 12.5 3 0
11 1 1 10 2.7e-05 5.38516 2 22.5 19 0 22.5 19 0
12 1 1 10 2.7e-05 5.38516 2 22.5 15 0 22.5 15 0
13 1 1 10 2.7e-05 5.38516 2 22.5 11 0 22.5 11 0
14 1 1 10 2.7e-05 5.38516 2 22.5 7 0 22.5 7 0
15 1 1 10 2.7e-05 5.38516 2 22.5 3 0 22.5 3 0
16 1 1 10 2.7e-05 5.38516 2 32.5 19 0 32.5 19 0
17 1 1 10 2.7e-05 5.38516 2 32.5 15 0 32.5 15 0
18 1 1 10 2.7e-05 5.38516 2 32.5 11 0 32.5 11 0
19 1 1 10 2.7e-05 5.38516 2 32.5 7 0 32.5 7 0
20 1 1 10 2.7e-05 5.38516 2 32.5 3 0 32.5 3 0
21 1 1 10 2.7e-05 5.38516 2 42.5 19 0 42.5 19 0
22 1 1 10 2.7e-05 5.38516 2 42.5 15 0 42.5 15 0
23 1 1 10 2.7e-05 5.38516 2 42.5 11 0 42.5 11 0
24 1 1 10 2.7e-05 5.38516 2 42.5 7 0 42.5 7 0
25 1 1 10 2.7e-05 5.38516 2 42.5 3 0 42.5 3 0
26 1 1 3.925 1.05975e-05 3.04795 2 51 18.8313 0 51 18.8313 0
27 1 1 3.925 1.05975e-05 2.93641 2 51 14.9062 0 51 14.9062 0
28 1 1 3.925 1.05975e-05 2.82843 2 51 10.9813 0 51 10.9813 0
29 1 1 3.925 1.05975e-05 2.88195 2 51 7.05625 0 51 7.05625 0
30 1 1 3.925 1.05975e-05 2.99176 2 51 3.13125 0 51 3.13125 0
31 1 1 3.625 9.7875e-06 2.93641 2 55 18.1562 0 55 18.1562 0
32 1 1 3.625 9.7875e-06 2.82843 2 55 14.5313 0 55 14.5313 0
33 1 1 3.625 9.7875e-06 2.72443 1.85 55 10.9062 0 55 10.9062 0
34 1 1 3.625 9.7875e-06 2.7759 1.925 55 7.28125 0 55 7.28125 0
35 1 1 3.625 9.7875e-06 2.88195 2 55 3.65625 0 55 3.65625 0
36 1 1 3.325 8.9775e-06 2.82843 2 59 17.4812 0 59 17.4812 0
37 1 1 3.325 8.9775e-06 2.72443 1.85 59 14.1562 0 59 14.1562 0
38 1 1 3.325 8.9775e-06 2.62488 1.7 59 10.8312 0 59 10.8312 0
39 1 1 3.325 8.9775e-06 2.67407 1.775 59 7.50625 0 59 7.50625 0
40 1 1 3.325 8.9775e-06 2.7759 1.925 59 4.18125 0 59 4.18125 0
41 1 1 3.025 8.1675e-06 2.72443 1.85 63 16.8063 0 63 16.8063 0
42 1 1 3.025 8.1675e-06 2.62488 1.7 63 13.7812 0 63 13.7812 0
43 1 1 3.025 8.1675e-06 2.53032 1.55 63 10.7563 0 63 10.7563 0
44 1 1 3.025 8.1675e-06 2.57694 1.625 63 7.73125 0 63 7.73125 0
45 1 1 3.025 8.1675e-06 2.67407 1.775 63 4.70625 0 63 4.70625 0
46 1 1 2.725 7.3575e-06 2.62488 1.7 67 16.1313 0 67 16.1313 0
47 1 1 2.725 7.3575e-06 2.53032 1.55 67 13.4062 0 67 13.4062 0
48 1 1 2.725 7.3575e-06 2.44131 1.4 67 10.6812 0 67 10.6812 0
49 1 1 2.725 7.3575e-06 2.48508 1.475 67 7.95625 0 67 7.95625 0
50 1 1 2.725 7.3575e-06 2.57694 1.625 67 5.23125 0 67 5.23125 0
51 1 1 3.75 1.0125e-05 3.25 1.25 71.5 15.625 0 71.5 15.625 0
52 1 1 3.75 1.0125e-05 3.25 1.25 71.5 13.125 0 71.5 13.125 0
53 1 1 3.75 1.0125e-05 3.25 1.25 71.5 10.625 0 71.5 10.625 0
54 1 1 3.75 1.0125e-05 3.25 1.25 71.5 8.125 0 71.5 8.125 0
55 1 1 3.75 1.0125e-05 3.25 1.25 71.5 5.625 0 71.5 5.625 0
56 1 1 3.75 1.0125e-05 3.25 1.25 77.5 15.625 0 77.5 15.625 0
57 1 1 3.75 1.0125e-05 3.25 1.25 77.5 13.125 0 77.5 13.125 0
58 1 1 3.75 1.0125e-05 3.25 1.25 77.5 10.625 0 77.5 10.625 0
59 1 1 3.75 1.0125e-05 3.25 1.25 77.5 8.125 0 77.5 8.125 0
60 1 1 3.75 1.0125e-05 3.25 1.25 77.5 5.625 0 77.5 5.625 0
61 1 1 3.75 1.0125e-05 3.25 1.25 83.5 15.625 0 83.5 15.625 0
62 1 1 3.75 1.0125e-05 3.25 1.25 83.5 13.125 0 83.5 13.125 0
63 1 1 3.75 1.0125e-05 3.25 1.25 83.5 10.625 0 83.5 10.625 0
64 1 1 3.75 1.0125e-05 3.25 1.25 83.5 8.125 0 83.5 8.125 0
65 1 1 3.75 1.0125e-05 3.25 1.25 83.5 5.625 0 83.5 5.625 0
66 1 1 3.75 1.0125e-05 3.25 1.25 89.5 15.625 0 89.5 15.625 0
67 1 1 3.75 1.0125e-05 3.25 1.25 89.5 13.125 0 89.5 13.125 0
68 1 1 3.75 1.0125e-05 3.25 1.25 89.5 10.625 0 89.5 10.625 0
69 1 1 3.75 1.0125e-05 3.25 1.25 89.5 8.125 0 89.5 8.125 0
70 1 1 3.75 1.0125e-05 3.25 1.25 89.5 5.625 0 89.5 5.625 0
71 1 1 3.75 1.0125e-05 3.25 1.25 95.5 15.625 0 95.5 15.625 0
72 1 1 3.75 1.0125e-05 3.25 1.25 95.5 13.125 0 95.5 13.125 0
73 1 1 3.75 1.0125e-05 3.25 1.25 95.5 10.625 0 95.5 10.625 0
74 1 1 3.75 1.0125e-05 3.25 1.25 95.5 8.125 0 95.5 8.125 0
75 1 1 3.75 1.0125e-05 3.25 1.25 95.5 5.625 0 95.5 5.625 0
76 1 1 3.75 1.0125e-05 3.25 1.25 101.5 15.625 0 101.5 15.625 0
77 1 1 3.75 1.0125e-05 3.25 1.25 101.5 13.125 0 101.5 13.125 0
78 1 1 3.75 1.0125e-05 3.25 1.25 101.5 10.625 0 101.5 10.625 0
79 1 1 3.75 1.0125e-05 3.25 1.25 101.5 8.125 0 101.5 8.125 0
80 1 1 3.75 1.0125e-05 3.25 1.25 101.5 5.625 0 101.5 5.625 0
81 1 1 3.75 1.0125e-05 3.25 1.25 107.5 15.625 0 107.5 15.625 0
82 1 1 3.75 1.0125e-05 3.25 1.25 107.5 13.125 0 107.5 13.125 0
83 1 1 3.75 1.0125e-05 3.25 1.25 107.5 10.625 0 107.5 10.625 0
84 1 1 3.75 1.0125e-05 3.25 1.25 107.5 8.125 0 107.5 8.125 0
85 1 1 3.75 1.0125e-05 3.25 1.25 107.5 5.625 0 107.5 5.625 0
86 1 1 3.75 1.0125e-05 3.25 1.25 113.5 15.625 0 113.5 15.625 0
87 1 1 3.75 1.0125e-05 3.25 1.25 113.5 13.125 0 113.5 13.125 0
88 1 1 3.75 1.0125e-05 3.25 1.25 113.5 10.625 0 113.5 10.625 0
89 1 1 3.75 1.0125e-05 3.25 1.25 113.5 8.125 0 113.5 8.125 0
90 1 1 3.75 1.0125e-05 3.25 1.25 113.5 5.625 0 113.5 5.625 0
91 1 1 3.75 1.0125e-05 3.25 1.25 119.5 15.625 0 119.5 15.625 0
92 1 1 3.75 1.0125e-05 3.25 1.25 119.5 13.125 0 119.5 13.125 0
93 1 1 3.75 1.0125e-05 3.25 1.25 119.5 10.625 0 119.5 10.625 0
94 1 1 3.75 1.0125e-05 3.25 1.25 119.5 8.125 0 119.5 8.125 0
95 1 1 3.75 1.0125e-05 3.25 1.25 119.5 5.625 0 119.5 5.625 0
96 1 1 3.75 1.0125e-05 3.25 1.25 125.5 15.625 0 125.5 15.625 0
97 1 1 3.75 1.0125e-05 3.25 1.25 125.5 13.125 0 125.5 13.125 0
98 1 1 3.75 1.0125e-05 3.25 1.25 125.5 10.625 0 125.5 10.625 0
99 1 1 3.75 1.0125e-05 3.25 1.25 125.5 8.125 0 125.5 8.125 0
100 1 1 3.75 1.0125e-05 3.25 1.25 125.5 5.625 0 125.5 5.625 0
101 1 1 2.575 6.9525e-06 2.57694 1.625 131 15.7938 0 131 15.7938 0
102 1 1 2.575 6.9525e-06 2.48508 1.475 131 13.2188 0 131 13.2188 0
103 1 1 2.575 6.9525e-06 2.39909 1.325 131 10.6437 0 131 10.6437 0
104 1 1 2.575 6.9525e-06 2.44131 1.4 131 8.06875 0 131 8.06875 0
105 1 1 2.575 6.9525e-06 2.53032 1.55 131 5.49375 0 131 5.49375 0
106 1 1 2.875 7.7625e-06 2.67407 1.775 135 16.4688 0 135 16.4688 0
107 1 1 2.875 7.7625e-06 2.57694 1.625 135 13.5937 0 135 13.5937 0
108 1 1 2.875 7.7625e-06 2.48508 1.475 135 10.7188 0 135 10.7188 0
109 1 1 2.875 7.7625e-06 2.53032 1.55 135 7.84375 0 135 7.84375 0
110 1 1 2.875 7.7625e-06 2.62488 1.7 135 4.96875 0 135 4.96875 0
111 1 1 3.175 8.5725e-06 2.7759 1.925 139 17.1438 0 139 17.1438 0
112 1 1 3.175 8.5725e-06 2.67407 1.775 139 13.9688 0 139 13.9688 0
113 1 1 3.175 8.5725e-06 2.57694 1.625 139 10.7938 0 139 10.7938 0
114 1 1 3.175 8.5725e-06 2.62488 1.7 139 7.61875 0 139 7.61875 0
115 1 1 3.175 8.5725e-06 2.72443 1.85 139 4.44375 0 139 4.44375 0
116 1 1 3.475 9.38251e-06 2.88195 2 143 17.8187 0 143 17.8187 0
117 1 1 3.475 9.3825e-06 2.7759 1.925 143 14.3438 0 143 14.3438 0
118 1 1 3.475 9.3825e-06 2.67407 1.775 143 10.8687 0 143 10.8687 0
119 1 1 3.475 9.3825e-06 2.72443 1.85 143 7.39375 0 143 7.39375 0
120 1 1 3.475 9.3825e-06 2.82843 2 143 3.91875 0 143 3.91875 0
121 1 1 3.775 1.01925e-05 2.99176 2 147 18.4938 0 147 18.4938 0
122 1 1 3.775 1.01925e-05 2.88195 2 147 14.7188 0 147 14.7188 0
123 1 1 3.775 1.01925e-05 2.7759 1.925 147 10.9438 0 147 10.9438 0
124 1 1 3.775 1.01925e-05 2.82843 2 147 7.16875 0 147 7.16875 0
125 1 1 3.775 1.01925e-05 2.93641 2 147 3.39375 0 147 3.39375 0
126 1 1 10 2.7e-05 5.38516 2 197.5 19 0 197.5 19 0
127 1 1 10 2.7e-05 5.38516 2 197.5 15 0 197.5 15 0
128 1 1 10 2.7e-05 5.38516 2 197.5 11 0 197.5 11 0
129 1 1 10 2.7e-05 5.38516 2 197.5 7 0 197.5 7 0
130 1 1 10 2.7e-05 5.38516 2 197.5 3 0 197.5 3 0
131 1 1 10 2.7e-05 5.38516 2 187.5 19 0 187.5 19 0
132 1 1 10 2.7e-05 5.38516 2 187.5 15 0 187.5 15 0
133 1 1 10 2.7e-05 5.38516 2 187.5 11 0 187.5 11 0
134 1 1 10 2.7e-05 5.38516 2 187.5 7 0 187.5 7 0
135 1 1 10 2.7e-05 5.38516 2 187.5 3 0 187.5 3 0
136 1 1 10 2.7e-05 5.38516 2 177.5 19 0 177.5 19 0
137 1 1 10 2.7e-05 5.38516 2 177.5 15 0 177.5 15 0
138 1 1 10 2.7e-05 5.38516 2 177.5 11 0 177.5 11 0
139 1 1 10 2.7e-05 5.38516 2 177.5 7 0 177.5 7 0
140 1 1 10 2.7e-05 5.38516 2 177.5 3 0 177.5 3 0
141 1 1 10 2.7e-05 5.38516 2 167.5 19 0 167.5 19 0
142 1 1 10 2.7e-05 5.38516 2 167.5 15 0 167.5 15 0
143 1 1 10 2.7e-05 5.38516 2 167.5 11 0 167.5 11 0
144 1 1 10 2.7e-05 5.38516 2 167.5 7 0 167.5 7 0
145 1 1 10 2.7e-05 5.38516 2 167.5 3 0 167.5 3 0
146 1 1 10 2.7e-05 5.38516 2 157.5 19 0 157.5 19 0
147 1 1 10 2.7e-05 5.38516 2 157.5 15 0 157.5 15 0
148 1 1 10 2.7e-05 5.38516 2 157.5 11 0 157.5 11 0
149 1 1 10 2.7e-05 5.38516 2 157.5 7 0 157.5 7 0
150 1 1 10 2.7e-05 5.38516 2 157.5 3 0 157.5 3 0
151 1 1 10 2.7e-05 5.38516 2 2.5 17 0 2.5 17 0
152 1 1 10 2.7e-05 5.38516 2 7.5 17 0 7.5 17 0
153 1 1 10 2.7e-05 5.38516 2 7.5 19 0 7.5 19 0
154 1 1 10 2.7e-05 5.38516 2 2.5 13 0 2.5 13 0
155 1 1 10 2.7e-05 5.38516 2 7.5 13 0 7.5 13 0
156 1 1 10 2.7e-05 5.38516 2 7.5 15 0 7.5 15 0
157 1 1 10 2.7e-05 5.38516 2 2.5 9 0 2.5 9 0
158 1 1 10 2.7e-05 5.38516 2 7.5 9 0 7.5 9 0
159 1 1 10 2.7e-05 5.38516 2 7.5 11 0 7.5 11 0
160 1 1 10 2.7e-05 5.38516 2 2.5 5 0 2.5 5 0
161 1 1 10 2.7e-05 5.38516 2 7.5 5 0 7.5 5 0
162 1 1 10 2.7e-05 5.38516 2 7.5 7 0 7.5 7 0
163 1 1 10 2.7e-05 5.38516 2 2.5 1 0 2.5 1 0
164 1 1 10 2.7e-05 5.38516 2 7.5 1 0 7.5 1 0
165 1 1 10 2.7e-05 5.38516 2 7.5 3 0 7.5 3 0
166 1 1 10 2.7e-05 5.38516 2 12.5 17 0 12.5 17 0
167 1 1 10 2.7e-05 5.38516 2 17.5 17 0 17.5 17 0
168 1 1 10 2.7e-05 5.38516 2 17.5 19 0 17.5 19 0
169 1 1 10 2.7e-05 5.38516 2 12.5 13 0 12.5 13 0
170 1 1 10 2.7e-05 5.38516 2 17.5 13 0 17.5 13 0
171 1 1 10 2.7e-05 5.38516 2 17.5 15 0 17.5 15 0
172 1 1 10 2.7e-05 5.38516 2 12.5 9 0 12.5 9 0
173 1 1 10 2.7e-05 5.38516 2 17.5 9 0 17.5 9 0
174 1 1 10 2.7e-05 5.38516 2 17.5 11 0 17.5 11 0
175 1 1 10 2.7e-05 5.38516 2 12.5 5 0 12.5 5 0
176 1 1 10 2.7e-05 5.38516 2 17.5 5 0 17.5 5 0
177 1 1 10 2.7e-05 5.38516 2 17.5 7 0 17.5 7 0
178 1 1 10 2.7e-05 5.38516 2 12.5 1 0 12.5 1 0
179 1 1 10 2.7e-05 5.38516 2 17.5 1 0 17.5 1 0
180 1 1 10 2.7e-05 5.38516 2 17.5 3 0 17.5 3 0
181 1 1 10 2.7e-05 5.38516 2 22.5 17 0 22.5 17 0
182 1 1 10 2.7e-05 5.38516 2 27.5 17 0 27.5 17 0
183 1 1 10 2.7e-05 5.38516 2 27.5 19 0 27.5 19 0
184 1 1 10 2.7e-05 5.38516 2 22.5 13 0 22.5 13 0
185 1 1 10 2.7e-05 5.38516 2 27.5 13 0 27.5 13 0
186 1 1 10 2.7e-05 5.38516 2 27.5 15 0 27.5 15 0
187 1 1 10 2.7e-05 5.38516 2 22.5 9 0 22.5 9 0
188 1 1 10 2.7e-05 5.38516 2 27.5 9 0 27.5 9 0
189 1 1 10 2.7e-05 5.38516 2 27.5 11 0 27.5 11 0
190 1 1 10 2.7e-05 5.38516 2 22.5 5 0 22.5 5 0
191 1 1 10 2.7e-05 5.38516 2 27.5 5 0 27.5 5 0
192 1 1 10 2.7e-05 5.38516 2 27.5 7 0 27.5 7 0
193 1 1 10 2.7e-05 5.38516 2 22.5 1 0 22.5 1 0
194 1 1 10 2.7e-05 5.38516 2 27.5 1 0 27.5 1 0
195 1 1 10 2.7e-05 5.38516 2 27.5 3 0 27.5 3 0
196 1 1 10 2.7e-05 5.38516 2 32.5 17 0 32.5 17 0
197 1 1 10 2.7e-05 5.38516 2 37.5 17 0 37.5 17 0
198 1 1 10 2.7e-05 5.38516 2 37.5 19 0 37.5 19 0
199 1 1 10 2.7e-05 5.38516 2 32.5 13 0 32.5 13 0
200 1 1 10 2.7e-05 5.38516 2 37.5 13 0 37.5 13 0
201 1 1 10 2.7e-05 5.38516 2 37.5 15 0 37.5 15 0
202 1 1 10 2.7e-05 5.38516 2 32.5 9 0 32.5 9 0
203 1 1 10 2.7e-05 5.38516 2 37.5 9 0 37.5 9 0
204 1 1 10 2.7e-05 5.38516 2 37.5 11 0 37.5 11 0
205 1 1 10 2.7e-05 5.38516 2 32.5 5 0 32.5 5 0
206 1 1 10 2.7e-05 5.38516 2 37.5 5 0 37.5 5 0
207 1 1 10 2.7e-05 5.38516 2 37.5 7 0 37.5 7 0
208 1 1 10 2.7e-05 5.38516 2 32.5 1 0 32.5 1 0
209 1 1 10 2.7e-05 5.38516 2 37.5 1 0 37.5 1 0
210 1 1 10 2.7e-05 5.38516 2 37.5 3 0 37.5 3 0
211 1 1 10 2.7e-05 5.38516 2 42.5 17 0 42.5 17 0
212 1 1 10 2.7e-05 5.38516 2 47.5 17 0 47.5 17 0
213 1 1 10 2.7e-05 5.38516 2 47.5 19 0 47.5 19 0
214 1 1 10 2.7e-05 5.38516 2 42.5 13 0 42.5 13 0
215 1 1 10 2.7e-05 5.38516 2 47.5 13 0 47.5 13 0
216 1 1 10 2.7e-05 5.38516 2 47.5 15 0 47.5 15 0
217 1 1 10 2.7e-05 5.38516 2 42.5 9 0 42.5 9 0
218 1 1 10 2.7e-05 5.38516 2 47.5 9 0 47.5 9 0
219 1 1 10 2.7e-05 5.38516 2 47.5 11 0 47.5 11 0
220 1 1 10 2.7e-05 5.38516 2 42.5 5 0 42.5 5 0
221 1 1 10 2.7e-05 5.38516 2 47.5 5 0 47.5 5 0
222 1 1 10 2.7e-05 5.38516 2 47.5 7 0 47.5 7 0
223 1 1 10 2.7e-05 5.38516 2 42.5 1 0 42.5 1 0
224 1 1 10 2.7e-05 5.38516 2 47.5 1 0 47.5 1 0
225 1 1 10 2.7e-05 5.38516 2 47.5 3 0 47.5 3 0
226 1 1 3.925 1.05975e-05 2.99176 2 51 16.8688 0 51 16.8688 0
227 1 1 3.775 1.01925e-05 2.93641 2 53 16.6063 0 53 16.6063 0
228 1 1 3.775 1.01925e-05 2.99176 2 53 18.4938 0 53 18.4938 0
229 1 1 3.925 1.05975e-05 2.88195 2 51 12.9437 0 51 12.9437 0
230 1 1 3.775 1.01925e-05 2.82843 2 53 12.8313 0 53 12.8313 0
231 1 1 3.775 1.01925e-05 2.88195 2 53 14.7188 0 53 14.7188 0
232 1 1 3.925 1.05975e-05 2.82843 2 51 9.01875 0 51 9.01875 0
233 1 1 3.775 1.01925e-05 2.7759 1.925 53 9.05625 0 53 9.05625 0
234 1 1 3.775 1.01925e-05 2.7759 1.925 53 10.9438 0 53 10.9438 0
235 1 1 3.925 1.05975e-05 2.93641 2 51 5.09375 0 51 5.09375 0
236 1 1 3.775 1.01925e-05 2.88195 2 53 5.28125 0 53 5.28125 0
237 1 1 3.775 1.01925e-05 2.82843 2 53 7.16875 0 53 7.16875 0
238 1 1 3.925 1.05975e-05 3.04795 2 51 1.16875 0 51 1.16875 0
239 1 1 3.775 1.01925e-05 2.99176 2 53 1.50625 0 53 1.50625 0
240 1 1 3.775 1.01925e-05 2.93641 2 53 3.39375 0 53 3.39375 0
241 1 1 3.625 9.7875e-06 2.88195 2 55 16.3438 0 55 16.3438 0
242 1 1 3.475 9.3825e-06 2.82843 2 57 16.0813 0 57 16.0813 0
243 1 1 3.475 9.3825e-06 2.88195 2 57 17.8187 0 57 17.8187 0
244 1 1 3.625 9.78751e-06 2.7759 1.925 55 12.7188 0 55 12.7188 0
245 1 1 3.475 9.3825e-06 2.72443 1.85 57 12.6063 0 57 12.6063 0
246 1 1 3.475 9.3825e-06 2.7759 1.925 57 14.3438 0 57 14.3438 0
247 1 1 3.625 9.7875e-06 2.72443 1.85 55 9.09375 0 55 9.09375 0
248 1 1 3.475 9.3825e-06 2.67407 1.775 57 9.13125 0 57 9.13125 0
249 1 1 3.475 9.3825e-06 2.67407 1.775 57 10.8687 0 57 10.8687 0
250 1 1 3.625 9.7875e-06 2.82843 2 55 5.46875 0 55 5.46875 0
251 1 1 3.475 9.3825e-06 2.7759 1.925 57 5.65625 0 57 5.65625 0
252 1 1 3.475 9.3825e-06 2.72443 1.85 57 7.39375 0 57 7.39375 0
253 1 1 3.625 9.7875e-06 2.93641 2 55 1.84375 0 55 1.84375 0
254 1 1 3.475 9.3825e-06 2.88195 2 57 2.18125 0 57 2.18125 0
255 1 1 3.475 9.3825e-06 2.82843 2 57 3.91875 0 57 3.91875 0
256 1 1 3.325 8.9775e-06 2.7759 1.925 59 15.8187 0 59 15.8187 0
257 1 1 3.175 8.5725e-06 2.72443 1.85 61 15.5563 0 61 15.5563 0
258 1 1 3.175 8.5725e-06 2.7759 1.925 61 17.1438 0 61 17.1438 0
259 1 1 3.325 8.9775e-06 2.67407 1.775 59 12.4937 0 59 12.4937 0
260 1 1 3.175 8.5725e-06 2.62488 1.7 61 12.3813 0 61 12.3813 0
261 1 1 3.175 8.5725e-06 2.67407 1.775 61 13.9688 0 61 13.9688 0
262 1 1 3.325 8.9775e-06 2.62488 1.7 59 9.16875 0 59 9.16875 0
263 1 1 3.175 8.5725e-06 2.57694 1.625 61 9.20625 0 61 9.20625 0
264 1 1 3.175 8.5725e-06 2.57694 1.625 61 10.7938 0 61 10.7938 0
265 1 1 3.325 8.9775e-06 2.72443 1.85 59 5.84375 0 59 5.84375 0
266 1 1 3.175 8.5725e-06 2.67407 1.775 61 6.03125 0 61 6.03125 0
267 1 1 3.175 8.5725e-06 2.62488 1.7 61 7.61875 0 61 7.61875 0
268 1 1 3.325 8.9775e-06 2.82843 2 59 2.51875 0 59 2.51875 0
269 1 1 3.175 8.5725e-06 2.7759 1.925 61 2.85625 0 61 2.85625 0
270 1 1 3.175 8.5725e-06 2.72443 1.85 61 4.44375 0 61 4.44375 0
271 1 1 3.025 8.16751e-06 2.67407 1.775 63 15.2938 0 63 15.2938 0
272 1 1 2.875 7.76251e-06 2.62488 1.7 65 15.0312 0 65 15.0312 0
273 1 1 2.875 7.7625e-06 2.67407 1.775 65 16.4688 0 65 16.4688 0
274 1 1 3.025 8.1675e-06 2.57694 1.625 63 12.2688 0 63 12.2688 0
275 1 1 2.875 7.7625e-06 2.53032 1.55 65 12.1562 0 65 12.1562 0
276 1 1 2.875 7.7625e-06 2.57694 1.625 65 13.5937 0 65 13.5937 0
277 1 1 3.025 8.1675e-06 2.53032 1.55 63 9.24375 0 63 9.24375 0
278 1 1 2.875 7.7625e-06 2.48508 1.475 65 9.28125 0 65 9.28125 0
279 1 1 2.875 7.7625e-06 2.48508 1.475 65 10.7188 0 65 10.7188 0
280 1 1 3.025 8.1675e-06 2.62488 1.7 63 6.21875 0 63 6.21875 0
281 1 1 2.875 7.7625e-06 2.57694 1.625 65 6.40625 0 65 6.40625 0
282 1 1 2.875 7.7625e-06 2.53032 1.55 65 7.84375 0 65 7.84375 0
283 1 1 3.025 8.1675e-06 2.72443 1.85 63 3.19375 0 63 3.19375 0
284 1 1 2.875 7.7625e-06 2.67407 1.775 65 3.53125 0 65 3.53125 0
285 1 1 2.875 7.7625e-06 2.62488 1.7 65 4.96875 0 65 4.96875 0
286 1 1 2.725 7.3575e-06 2.57694 1.625 67 14.7688 0 67 14.7688 0
287 1 1 2.575 6.9525e-06 2.53032 1.55 69 14.5063 0 69 14.5063 0
288 1 1 2.575 6.9525e-06 2.57694 1.625 69 15.7938 0 69 15.7938 0
289 1 1 2.725 7.3575e-06 2.48508 1.475 67 12.0437 0 67 12.0437 0
290 1 1 2.575 6.9525e-06 2.44131 1.4 69 11.9312 0 69 11.9312 0
291 1 1 2.575 6.9525e-06 2.48508 1.475 69 13.2188 0 69 13.2188 0
292 1 1 2.725 7.3575e-06 2.44131 1.4 67 9.31875 0 67 9.31875 0
293 1 1 2.575 6.9525e-06 2.39909 1.325 69 9.35625 0 69 9.35625 0
294 1 1 2.575 6.9525e-06 2.39909 1.325 69 10.6437 0 69 10.6437 0
295 1 1 2.725 7.3575e-06 2.53032 1.55 67 6.59375 0 67 6.59375 0
296 1 1 2.575 6.9525e-06 2.48508 1.475 69 6.78125 0 69 6.78125 0
297 1 1 2.575 6.9525e-06 2.44131 1.4 69 8.06875 0 69 8.06875 0
298 1 1 2.725 7.3575e-06 2.62488 1.7 67 3.86875 0 67 3.86875 0
299 1 1 2.575 6.9525e-06 2.57694 1.625 69 4.20625 0 69 4.20625 0
300 1 1 2.575 6.9525e-06 2.53032 1.55 69 5.49375 0 69 5.49375 0
301 1 1 3.75 1.0125e-05 3.25 1.25 71.5 14.375 0 71.5 14.375 0
302 1 1 3.75 1.0125e-05 3.25 1.25 74.5 14.375 0 74.5 14.375 0
303 1 1 3.75 1.0125e-05 3.25 1.25 74.5 15.625 0 74.5 15.625 0
304 1 1 3.75 1.0125e-05 3.25 1.25 71.5 11.875 0 71.5 11.875 0
305 1 1 3.75 1.0125e-05 3.25 1.25 74.5 11.875 0 74.5 11.875 0
306 1 1 3.75 1.0125e-05 3.25 1.25 74.5 13.125 0 74.5 13.125 0
307 1 1 3.75 1.0125e-05 3.25 1.25 71.5 9.375 0 71.5 9.375 0
308 1 1 3.75 1.0125e-05 3.25 1.25 74.5 9.375 0 74.5 9.375 0
309 1 1 3.75 1.0125e-05 3.25 1.25 74.5 10.625 0 74.5 10.625 0
310 1 1 3.75 1.0125e-05 3.25 1.25 71.5 6.875 0 71.5 6.875 0
311 1 1 3.75 1.0125e-05 3.25 1.25 74.5 6.875 0 74.5 6.875 0
312 1 1 3.75 1.0125e-05 3.25 1.25 74.5 8.125 0 74.5 8.125 0
313 1 1 3.75 1.0125e-05 3.25 1.25 71.5 4.375 0 71.5 4.375 0
314 1 1 3.75 1.0125e-05 3.25 1.25 74.5 4.375 0 74.5 4.375 0
315 1 1 3.75 1.0125e-05 3.25 1.25 74.5 5.625 0 74.5 5.625 0
316 1 1 3.75 1.0125e-05 3.25 1.25 77.5 14.375 0 77.5 14.375 0
317 1 1 3.75 1.0125e-05 3.25 1.25 80.5 14.375 0 80.5 14.375 0
318 1 1 3.75 1.0125e-05 3.25 1.25 80.5 15.625 0 80.5 15.625 0
319 1 1 3.75 1.0125e-05 3.25 1.25 77.5 11.875 0 77.5 11.875 0
320 1 1 3.75 1.0125e-05 3.25 1.25 80.5 11.875 0 80.5 11.875 0
321 1 1 3.75 1.0125e-05 3.25 1.25 80.5 13.125 0 80.5 13.125 0
322 1 1 3.75 1.0125e-05 3.25 1.25 77.5 9.375 0 77.5 9.375 0
323 1 1 3.75 1.0125e-05 3.25 1.25 80.5 9.375 0 80.5 9.375 0
324 1 1 3.75 1.0125e-05 3.25 1.25 80.5 10.625 0 80.5 10.625 0
325 1 1 3.75 1.0125e-05 3.25 1.25 77.5 6.875 0 77.5 6.875 0
326 1 1 3.75 1.0125e-05 3.25 1.25 80.5 6.875 0 80.5 6.875 0
327 1 1 3.75 1.0125e-05 3.25 1.25 80.5 8.125 0 80.5 8.125 0
328 1 1 3.75 1.0125e-05 3.25 1.25 77.5 4.375 0 77.5 4.375 0
329 1 1 3.75 1.0125e-05 3.25 1.25 80.5 4.375 0 80.5 4.375 0
330 1 1 3.75 1.0125e-05 3.25 1.25 80.5 5.625 0 80.5 5.625 0
331 1 1 3.75 1.0125e-05 3.25 1.25 83.5 14.375 0 83.5 14.375 0
332 1 1 3.75 1.0125e-05 3.25 1.25 86.5 14.375 0 86.5 14.375 0
333 1 1 3.75 1.0125e-05 3.25 1.25 86.5 15.625 0 86.5 15.625 0
334 1 1 3.75 1.0125e-05 3.25 1.25 83.5 11.875 0 83.5 11.875 0
335 1 1 3.75 1.0125e-05 3.25 1.25 86.5 11.875 0 86.5 11.875 0
336 1 1 3.75 1.0125e-05 3.25 1.25 86.5 13.125 0 86.5 13.125 0
337 1 1 3.75 1.0125e-05 3.25 1.25 83.5 9.375 0 83.5 9.375 0
338 1 1 3.75 1.0125e-05 3.25 1.25 86.5 9.375 0 86.5 9.375 0
339 1 1 3.75 1.0125e-05 3.25 1.25 86.5 10.625 0 86.5 10.625 0
340 1 1 3.75 1.0125e-05 3.25 1.25 83.5 6.875 0 83.5 6.875 0
341 1 1 3.75 1.0125e-05 3.25 1.25 86.5 6.875 0 86.5 6.875 0
342 1 1 3.75 1.0125e-05 3.25 1.25 86.5 8.125 0 86.5 8.125 0
343 1 1 3.75 1.0125e-05 3.25 1.25 83.5 4.375 0 83.5 4.375 0
344 1 1 3.75 1.0125e-05 3.25 1.25 86.5 4.375 0 86.5 4.375 0
345 1 1 3.75 1.0125e-05 3.25 1.25 86.5 5.625 0 86.5 5.625 0
346 1 1 3.75 1.0125e-05 3.25 1.25 89.5 14.375 0 89.5 14.375 0
347 1 1 3.75 1.0125e-05 3.25 1.25 92.5 14.375 0 92.5 14.375 0
348 1 1 3.75 1.0125e-05 3.25 1.25 92.5 15.625 0 92.5 15.625 0
349 1 1 3.75 1.0125e-05 3.25 1.25 89.5 11.875 0 89.5 11.875 0
350 1 1 3.75 1.0125e-05 3.25 1.25 92.5 11.875 0 92.5 11.875 0
351 1 1 3.75 1.0125e-05 3.25 1.25 92.5 13.125 0 92.5 13.125 0
352 1 1 3.75 1.0125e-05 3.25 1.25 89.5 9.375 0 89.5 9.375 0
353 1 1 3.75 1.0125e-05 3.25 1.25 92.5 9.375 0 92.5 9.375 0
354 1 1 3.75 1.0125e-05 3.25 1.25 92.5 10.625 0 92.5 10.625 0
355 1 1 3.75 1.0125e-05 3.25 1.25 89.5 6.875 0 89.5 6.875 0
356 1 1 3.75 1.0125e-05 3.25 1.25 92.5 6.875 0 92.5 6.875 0
357 1 1 3.75 1.0125e-05 3.25 1.25 92.5 8.125 0 92.5 8.125 0
358 1 1 3.75 1.0125e-05 3.25 1.25 89.5 4.375 0 89.5 4.375 0
359 1 1 3.75 1.0125e-05 3.25 1.25 92.5 4.375 0 92.5 4.375 0
360 1 1 3.75 1.0125e-05 3.25 1.25 92.5 5.625 0 92.5 5.625 0
361 1 1 3.75 1.0125e-05 3.25 1.25 95.5 14.375 0 95.5 14.375 0
362 1 1 3.75 1.0125e-05 3.25 1.25 98.5 14.375 0 98.5 14.375 0
363 1 1 3.75 1.0125e-05 3.25 1.25 98.5 15.625 0 98.5 15.625 0
364 1 1 3.75 1.0125e-05 3.25 1.25 95.5 11.875 0 95.5 11.875 0
365 1 1 3.75 1.0125e-05 3.25 1.25 98.5 11.875 0 98.5 11.875 0
366 1 1 3.75 1.0125e-05 3.25 1.25 98.5 13.125 0 98.5 13.125 0
367 1 1 3.75 1.0125e-05 3.25 1.25 95.5 9.375 0 95.5 9.375 0
368 1 1 3.75 1.0125e-05 3.25 1.25 98.5 9.375 0 98.5 9.375 0
369 1 1 3.75 1.0125e-05 3.25 1.25 98.5 10.625 0 98.5 10.625 0
370 1 1 3.75 1.0125e-05 3.25 1.25 95.5 6.875 0 95.5 6.875 0
371 1 1 3.75 1.0125e-05 3.25 1.25 98.5 6.875 0 98.5 6.875 0
372 1 1 3.75 1.0125e-05 3.25 1.25 98.5 8.125 0 98.5 8.125 0
373 1 1 3.75 1.0125e-05 3.25 1.25 95.5 4.375 0 95.5 4.375 0
374 1 1 3.75 1.0125e-05 3.25 1.25 98.5 4.375 0 98.5 4.375 0
375 1 1 3.75 1.0125e-05 3.25 1.25 98.5 5.625 0 98.5 5.625 0
376 1 1 3.75 1.0125e-05 3.25 1.25 101.5 14.375 0 101.5 14.375 0
377 1 1 3.75 1.0125e-05 3.25 1.25 104.5 14.375 0 104.5 14.375 0
378 1 1 3.75 1.0125e-05 3.25 1.25 104.5 15.625 0 104.5 15.625 0
379 1 1 3.75 1.0125e-05 3.25 1.25 101.5 11.875 0 101.5 11.875 0
380 1 1 3.75 1.0125e-05 3.25 1.25 104.5 11.875 0 104.5 11.875 0
381 1 1 3.75 1.0125e-05 3.25 1.25 104.5 13.125 0 104.5 13.125 0
382 1 1 3.75 1.0125e-05 3.25 1.25 101.5 9.375 0 101.5 9.375 0
383 1 1 3.75 1.0125e-05 3.25 1.25 104.5 9.375 0 104.5 9.375 0
384 1 1 3.75 1.0125e-05 3.25 1.25 104.5 10.625 0 104.5 10.625 0
385 1 1 3.75 1.0125e-05 3.25 1.25 101.5 6.875 0 101.5 6.875 0
386 1 1 3.75 1.0125e-05 3.25 1.25 104.5 6.875 0 104.5 6.875 0
387 1 1 3.75 1.0125e-05 3.25 1.25 104.5 8.125 0 104.5 8.125 0
388 1 1 3.75 1.0125e-05 3.25 1.25 101.5 4.375 0 101.5 4.375 0
389 1 1 3.75 1.0125e-05 3.25 1.25 104.5 4.375 0 104.5 4.375 0
390 1 1 3.75 1.0125e-05 3.25 1.25 104.5 5.625 0 104.5 5.625 0
391 1 1 3.75 1.0125e-05 3.25 1.25 107.5 14.375 0 107.5 14.375 0
392 1 1 3.75 1.0125e-05 3.25 1.25 110.5 14.375 0 110.5 14.375 0
393 1 1 3.75 1.0125e-05 3.25 1.25 110.5 15.625 0 110.5 15.625 0
394 1 1 3.75 1.0125e-05 3.25 1.25 107.5 11.875 0 107.5 11.875 0
395 1 1 3.75 1.0125e-05 3.25 1.25 110.5 11.875 0 110.5 11.875 0
396 1 1 3.75 1.0125e-05 3.25 1.25 110.5 13.125 0 110.5 13.125 0
397 1 1 3.75 1.0125e-05 3.25 1.25 107.5 9.375 0 107.5 9.375 0
398 1 1 3.75 1.0125e-05 3.25 1.25 110.5 9.375 0 110.5 9.375 0
399 1 1 3.75 1.0125e-05 3.25 1.25 110.5 10.625 0 110.5 10.625 0
400 1 1 3.75 1.0125e-05 3.25 1.25 107.5 6.875 0 107.5 6.875 0
401 1 1 3.75 1.0125e-05 3.25 1.25 110.5 6.875 0 110.5 6.875 0
402 1 1 3.75 1.0125e-05 3.25 1.25 110.5 8.125 0 110.5 8.125 0
403 1 1 3.75 1.0125e-05 3.25 1.25 107.5 4.375 0 107.5 4.375 0
404 1 1 3.75 1.0125e-05 3.25 1.25 110.5 4.375 0 110.5 4.375 0
405 1 1 3.75 1.0125e-05 3.25 1.25 110.5 5.625 0 110.5 5.625 0
406 1 1 3.75 1.0125e-05 3.25 1.25 113.5 14.375 0 113.5 14.375 0
407 1 1 3.75 1.0125e-05 3.25 1.25 116.5 14.375 0 116.5 14.375 0
408 1 1 3.75 1.0125e-05 3.25 1.25 116.5 15.625 0 116.5 15.625 0
409 1 1 3.75 1.0125e-05 3.25 1.25 113.5 11.875 0 113.5 11.875 0
410 1 1 3.75 1.0125e-05 3.25 1.25 116.5 11.875 0 116.5 11.875 0
411 1 1 3.75 1.0125e-05 3.25 1.25 116.5 13.125 0 116.5 13.125 0
412 1 1 3.75 1.0125e-05 3.25 1.25 113.5 9.375 0 113.5 9.375 0
413 1 1 3.75 1.0125e-05 3.25 1.25 116.5 9.375 0 116.5 9.375 0
414 1 1 3.75 1.0125e-05 3.25 1.25 116.5 10.625 0 116.5 10.625 0
415 1 1 3.75 1.0125e-05 3.25 1.25 113.5 6.875 0 113.5 6.875 0
416 1 1 3.75 1.0125e-05 3.25 1.25 116.5 6.875 0 116.5 6.875 0
417 1 1 3.75 1.0125e-05 3.25 1.25 116.5 8.125 0 116.5 8.125 0
418 1 1 3.75 1.0125e-05 3.25 1.25 113.5 4.375 0 113.5 4.375 0
419 1 1 3.75 1.0125e-05 3.25 1.25 116.5 4.375 0 116.5 4.375 0
420 1 1 3.75 1.0125e-05 3.25 1.25 116.5 5.625 0 116.5 5.625 0
421 1 1 3.75 1.0125e-05 3.25 1.25 119.5 14.375 0 119.5 14.375 0
422 1 1 3.75 1.0125e-05 3.25 1.25 122.5 14.375 0 122.5 14.375 0
423 1 1 3.75 1.0125e-05 3.25 1.25 122.5 15.625 0 122.5 15.625 0
424 1 1 3.75 1.0125e-05 3.25 1.25 119.5 11.875 0 119.5 11.875 0
425 1 1 3.75 1.0125e-05 3.25 1.25 122.5 11.875 0 122.5 11.875 0
426 1 1 3.75 1.0125e-05 3.25 1.25 122.5 13.125 0 122.5 13.125 0
427 1 1 3.75 1.0125e-05 3.25 1.25 119.5 9.375 0 119.5 9.375 0
428 1 1 3.75 1.0125e-05 3.25 1.25 122.5 9.375 0 122.5 9.375 0
429 1 1 3.75 1.0125e-05 3.25 1.25 122.5 10.625 0 122.5 10.625 0
430 1 1 3.75 1.0125e-05 3.25 1.25 119.5 6.875 0 119.5 6.875 0
431 1 1 3.75 1.0125e-05 3.25 1.25 122.5 6.875 0 122.5 6.875 0
432 1 1 3.75 1.0125e-05 3.25 1.25 122.5 8.125 0 122.5 8.125 0
433 1 1 3.75 1.0125e-05 3.25 1.25 119.5 4.375 0 119.5 4.375 0
434 1 1 3.75 1.0125e-05 3.25 1.25 122.5 4.375 0 122.5 4.375 0
435 1 1 3.75 1.0125e-05 3.25 1.25 122.5 5.625 0 122.5 5.625 0
436 1 1 3.75 1.0125e-05 3.25 1.25 125.5 14.375 0 125.5 14.375 0
437 1 1 3.75 1.0125e-05 3.25 1.25 128.5 14.375 0 128.5 14.375 0
438 1 1 3.75 1.0125e-05 3.25 1.25 128.5 15.625 0 128.5 15.625 0
439 1 1 3.75 1.0125e-05 3.25 1.25 125.5 11.875 0 125.5 11.875 0
440 1 1 3.75 1.0125e-05 3.25 1.25 128.5 11.875 0 128.5 11.875 0
441 1 1 3.75 1.0125e-05 3.25 1.25 128.5 13.125 0 128.5 13.125 0
442 1 1 3.75 1.0125e-05 3.25 1.25 125.5 9.375 0 125.5 9.375 0
443 1 1 3.75 1.0125e-05 3.25 1.25 128.5 9.375 0 128.5 9.375 0
444 1 1 3.75 1.0125e-05 3.25 1.25 128.5 10.625 0 128.5 10.625 0
445 1 1 3.75 1.0125e-05 3.25 1.25 125.5 6.875 0 125.5 6.875 0
446 1 1 3.75 1.0125e-05 3.25 1.25 128.5 6.875 0 128.5 6.875 0
447 1 1 3.75 1.0125e-05 3.25 1.25 128.5 8.125 0 128.5 8.125 0
448 1 1 3.75 1.0125e-05 3.25 1.25 125.5 4.375 0 125.5 4.375 0
449 1 1 3.75 1.0125e-05 3.25 1.25 128.5 4.375 0 128.5 4.375 0
450 1 1 3.75 1.0125e-05 3.25 1.25 128.5 5.625 0 128.5 5.625 0
451 1 1 2.575 6.9525e-06 2.53032 1.55 131 14.5063 0 131 14.5063 0
452 1 1 2.725 7.3575e-06 2.57694 1.625 133 14.7688 0 133 14.7688 0
453 1 1 2.725 7.3575e-06 2.62488 1.7 133 16.1313 0 133 16.1313 0
454 1 1 2.575 6.9525e-06 2.44131 1.4 131 11.9313 0 131 11.9313 0
455 1 1 2.725 7.3575e-06 2.48508 1.475 133 12.0437 0 133 12.0437 0
456 1 1 2.725 7.3575e-06 2.53032 1.55 133 13.4062 0 133 13.4062 0
457 1 1 2.575 6.9525e-06 2.39909 1.325 131 9.35625 0 131 9.35625 0
458 1 1 2.725 7.3575e-06 2.44131 1.4 133 9.31875 0 133 9.31875 0
459 1 1 2.725 7.3575e-06 2.44131 1.4 133 10.6812 0 133 10.6812 0
460 1 1 2.575 6.9525e-06 2.48508 1.475 131 6.78125 0 131 6.78125 0
461 1 1 2.725 7.3575e-06 2.53032 1.55 133 6.59375 0 133 6.59375 0
462 1 1 2.725 7.3575e-06 2.48508 1.475 133 7.95625 0 133 7.95625 0
463 1 1 2.575 6.9525e-06 2.57694 1.625 131 4.20625 0 131 4.20625 0
464 1 1 2.725 7.3575e-06 2.62488 1.7 133 3.86875 0 133 3.86875 0
465 1 1 2.725 7.3575e-06 2.57694 1.625 133 5.23125 0 133 5.23125 0
466 1 1 2.875 7.7625e-06 2.62488 1.7 135 15.0312 0 135 15.0312 0
467 1 1 3.025 8.1675e-06 2.67407 1.775 137 15.2937 0 137 15.2937 0
468 1 1 3.025 8.1675e-06 2.72443 1.85 137 16.8063 0 137 16.8063 0
469 1 1 2.875 7.76249e-06 2.53032 1.55 135 12.1562 0 135 12.1562 0
470 1 1 3.025 8.1675e-06 2.57694 1.625 137 12.2687 0 137 12.2687 0
471 1 1 3.025 8.1675e-06 2.62488 1.7 137 13.7812 0 137 13.7812 0
472 1 1 2.875 7.7625e-06 2.48508 1.475 135 9.28125 0 135 9.28125 0
473 1 1 3.025 8.1675e-06 2.53032 1.55 137 9.24375 0 137 9.24375 0
474 1 1 3.025 8.1675e-06 2.53032 1.55 137 10.7563 0 137 10.7563 0
475 1 1 2.875 7.7625e-06 2.57694 1.625 135 6.40625 0 135 6.40625 0
476 1 1 3.025 8.1675e-06 2.62488 1.7 137 6.21875 0 137 6.21875 0
477 1 1 3.025 8.1675e-06 2.57694 1.625 137 7.73125 0 137 7.73125 0
478 1 1 2.875 7.7625e-06 2.67407 1.775 135 3.53125 0 135 3.53125 0
479 1 1 3.025 8.1675e-06 2.72443 1.85 137 3.19375 0 137 3.19375 0
480 1 1 3.025 8.1675e-06 2.67407 1.775 137 4.70625 0 137 4.70625 0
481 1 1 3.175 8.5725e-06 2.72443 1.85 139 15.5563 0 139 15.5563 0
482 1 1 3.325 8.9775e-06 2.7759 1.925 141 15.8187 0 141 15.8187 0
483 1 1 3.325 8.9775e-06 2.82843 2 141 17.4812 0 141 17.4812 0
484 1 1 3.175 8.5725e-06 2.62488 1.7 139 12.3813 0 139 12.3813 0
485 1 1 3.325 8.9775e-06 2.67407 1.775 141 12.4937 0 141 12.4937 0
486 1 1 3.325 8.9775e-06 2.72443 1.85 141 14.1562 0 141 14.1562 0
487 1 1 3.175 8.5725e-06 2.57694 1.625 139 9.20625 0 139 9.20625 0
488 1 1 3.325 8.9775e-06 2.62488 1.7 141 9.16875 0 141 9.16875 0
489 1 1 3.325 8.9775e-06 2.62488 1.7 141 10.8312 0 141 10.8312 0
490 1 1 3.175 8.5725e-06 2.67407 1.775 139 6.03125 0 139 6.03125 0
491 1 1 3.325 8.9775e-06 2.72443 1.85 141 5.84375 0 141 5.84375 0
492 1 1 3.325 8.9775e-06 2.67407 1.775 141 7.50625 0 141 7.50625 0
493 1 1 3.175 8.5725e-06 2.7759 1.925 139 2.85625 0 139 2.85625 0
494 1 1 3.325 8.9775e-06 2.82843 2 141 2.51875 0 141 2.51875 0
495 1 1 3.325 8.9775e-06 2.7759 1.925 141 4.18125 0 141 4.18125 0
496 1 1 3.475 9.38249e-06 2.82843 2 143 16.0812 0 143 16.0812 0
497 1 1 3.625 9.78749e-06 2.88195 2 145 16.3437 0 145 16.3437 0
498 1 1 3.625 9.78751e-06 2.93641 2 145 18.1562 0 145 18.1562 0
499 1 1 3.475 9.3825e-06 2.72443 1.85 143 12.6062 0 143 12.6062 0
500 1 1 3.625 9.7875e-06 2.7759 1.925 145 12.7188 0 145 12.7188 0
501 1 1 3.625 9.7875e-06 2.82843 2 145 14.5313 0 145 14.5313 0
502 1 1 3.475 9.3825e-06 2.67407 1.775 143 9.13125 0 143 9.13125 0
503 1 1 3.625 9.7875e-06 2.72443 1.85 145 9.09375 0 145 9.09375 0
504 1 1 3.625 9.7875e-06 2.72443 1.85 145 10.9062 0 145 10.9062 0